[
  {
    "wikilink": "https://en.wikipedia.org/wiki/Magnesium",
    "link": "https://upload.wikimedia.org/wikipedia/commons/thumb/5/5c/CSIRO_ScienceImage_2893_Crystalised_magnesium.jpg/220px-CSIRO_ScienceImage_2893_Crystalised_magnesium.jpg",

    "element": "Magnesium",
    "element_year": "1755",
    "element_discovered_name": "Joseph Black",
    "element_group": "Alkaline Earth Metals",
    "element_appearance": "Shiny Grey Solid",
    "element_electrons": "12",
    "element_protons": "12",
    "element_neutron_common": "12",

    "element_atomic_number": "12",
    "element_atomicmass": "24.305 (u)",
    "element_density": "1.74 (g/cm^3)",
    "element_electronegativty": "1.31",
    "element_block": "s - block",
    "element_shells_electrons": "K2 L8 M2 N0 O0 P0 Q0 R0",
    "element_model": "https://upload.wikimedia.org/wikipedia/commons/thumb/d/d7/Electron_shell_012_Magnesium_-_no_label.svg/1280px-Electron_shell_012_Magnesium_-_no_label.svg.png",

    "element_boiling_kelvin": "1363 (K)",
    "element_boiling_celsius": "1091 (°C)",
    "element_boiling_fahrenheit": "1994 (°F)",
    "element_melting_kelvin": "923 (K)",
    "element_melting_celsius": "650 (°C)",
    "element_melting_fahrenheit": "1202 (°F)",

    "element_electron_config": "3s^2",
    "element_ion_charge": "Na^+",
    "element_ionization_energy": "7.64624 (eV)",
    "element_atomic_radius": "145 (pm)",
    "element_covalent_radius": "130 (pm)",
    "element_van_der_waals": "174 (pm)",

    "element_phase": "Solid",
    "element_fusion_heat": "8.48 (kJ/mol)",
    "element_specific_heat_capacity": "1.023 J/(g·K)",
    "element_vaporization_heat": "128 (kJ/mol)"
  }
]