[
  {
    "wikilink": "https://en.wikipedia.org/wiki/Aluminium",
    "link": "https://upload.wikimedia.org/wikipedia/commons/5/5d/Aluminium-4.jpg",

    "element": "Aluminium",
    "element_year": "1825",
    "element_discovered_name": "Hans Christian Ørsted",
    "element_group": "Post-transition Metal",
    "element_appearance": "Silver Grey Metallic",
    "element_electrons": "13",
    "element_protons": "13",
    "element_neutron_common": "14",

    "element_atomic_number": "13",
    "element_atomicmass": "26.9815 (u)",
    "element_density": "2.70 (g/cm^3)",
    "element_electronegativty": "1.61",
    "element_block": "p - block",
    "element_shells_electrons": "K2 L8 M3 N0 O0 P0 Q0 R0",
    "element_model": "https://upload.wikimedia.org/wikipedia/commons/thumb/4/4d/Electron_shell_013_Aluminium_-_no_label.svg/1280px-Electron_shell_013_Aluminium_-_no_label.svg.png",

    "element_boiling_kelvin": "2743 (K)",
    "element_boiling_celsius": "2470 (°C)",
    "element_boiling_fahrenheit": "4478 (°F)",
    "element_melting_kelvin": "933.47 (K)",
    "element_melting_celsius": "660.32 (°C)",
    "element_melting_fahrenheit": "1220.58 (°F)",

    "element_electron_config": "3s^2 3p^1",
    "element_ion_charge": "Al^3+",
    "element_ionization_energy": "5.98577 (eV)",
    "element_atomic_radius": "118 (pm)",
    "element_covalent_radius": "184 (pm)",
    "element_van_der_waals": "118 (pm)",

    "element_phase": "Solid",
    "element_fusion_heat": "10.789 (kJ/mol)",
    "element_specific_heat_capacity": "0.897 J/(g·K)",
    "element_vaporization_heat": "294 (kJ/mol)"
  }
]