[
  {
    "wikilink": "https://en.wikipedia.org/wiki/Silicon",
    "link": "https://upload.wikimedia.org/wikipedia/commons/e/e9/SiliconCroda.jpg",

    "element": "Silicon",
    "element_year": "1824",
    "element_discovered_name": "Jöns Jacob Berzelius",
    "element_group": "Metalloids",
    "element_appearance": "Crystalline, reflective with bluish-tinged faces",
    "element_electrons": "14",
    "element_protons": "14",
    "element_neutron_common": "14",

    "element_atomic_number": "14",
    "element_atomicmass": "28.085 (u)",
    "element_density": "2.3290 (g/cm^3)",
    "element_electronegativty": "1.90",
    "element_block": "p - block",
    "element_shells_electrons": "K2 L8 M4 N0 O0 P0 Q0 R0",
    "element_model": "https://upload.wikimedia.org/wikipedia/commons/thumb/1/1f/Electron_shell_014_Silicon_-_no_label.svg/1280px-Electron_shell_014_Silicon_-_no_label.svg.png",

    "element_boiling_kelvin": "3538 (K)",
    "element_boiling_celsius": "3265 (°C)",
    "element_boiling_fahrenheit": "5909 (°F)",
    "element_melting_kelvin": "1687 (K)",
    "element_melting_celsius": "1414 (°C)",
    "element_melting_fahrenheit": "2577 (°F)",

    "element_electron_config": "3s^2 3p^2",
    "element_ion_charge": "---",
    "element_ionization_energy": "8.15169 (eV)",
    "element_atomic_radius": "111 (pm)",
    "element_covalent_radius": "111 (pm)",
    "element_van_der_waals": "210 (pm)",

    "element_phase": "Solid",
    "element_fusion_heat": "50.21 (kJ/mol)",
    "element_specific_heat_capacity": "0.705 J/(g·K)",
    "element_vaporization_heat": "359 (kJ/mol)"
  }
]