[
  {
    "wikilink": "https://en.wikipedia.org/wiki/Chlorine",
    "link": "https://upload.wikimedia.org/wikipedia/commons/f/f4/Chlorine_ampoule.jpg",

    "element": "Chlorine",
    "element_year": "1774",
    "element_discovered_name": "Carl Wilhelm Scheele",
    "element_group": "Reactive Nonmetals",
    "element_appearance": "Pale yellow/ green gas",
    "element_electrons": "17",
    "element_protons": "17",
    "element_neutron_common": "18",

    "element_atomic_number": "17",
    "element_atomicmass": "35.45 (u)",
    "element_density": "0.003214 (g/cm^3)",
    "element_electronegativty": "3.16",
    "element_block": "p - block",
    "element_shells_electrons": "K2 L8 M7 N0 O0 P0 Q0 R0",
    "element_model": "https://upload.wikimedia.org/wikipedia/commons/thumb/4/41/Electron_shell_017_Chlorine_%28diatomic_nonmetal%29_-_no_label.svg/1280px-Electron_shell_017_Chlorine_%28diatomic_nonmetal%29_-_no_label.svg.png",

    "element_boiling_kelvin": "239.11 (K)",
    "element_boiling_celsius": "−34.04 (°C)",
    "element_boiling_fahrenheit": "−29.27 (°F)",
    "element_melting_kelvin": "171.6 (K)",
    "element_melting_celsius": "−101.5 (°C)",
    "element_melting_fahrenheit": "−150.7 (°F)",

    "element_electron_config": "3s^2 3p^5",
    "element_ion_charge": "Cl^-",
    "element_ionization_energy": "12.96764 (eV)",
    "element_atomic_radius": "79 (pm)",
    "element_covalent_radius": "99 (pm)",
    "element_van_der_waals": "175 (pm)",

    "element_phase": "Gas",
    "element_fusion_heat": "0.479 (Cl2) (kJ/mol)",
    "element_specific_heat_capacity": "0.479 (Cl2) J/(g·K)",
    "element_vaporization_heat": "20.41 (Cl2) (kJ/mol)"
  }
]