[
  {
    "wikilink": "https://en.wikipedia.org/wiki/Helium",
    "link": "https://upload.wikimedia.org/wikipedia/commons/thumb/8/82/Helium_discharge_tube.jpg/1920px-Helium_discharge_tube.jpg",

    "element": "Helium",
    "element_year": "1868",
    "element_discovered_name": "Pierre Janssen",
    "element_group": "Noble Gases",
    "element_appearance": "Colorless Gas",
    "element_electrons": "2",
    "element_protons": "2",
    "element_neutron_common": "2",

    "element_atomic_number": "2",
    "element_atomicmass": "4.00260 (u)",
    "element_density": "0.00017846 (g/cm^3)",
    "element_electronegativty": "---",
    "element_block": "s - block",
    "element_shells_electrons": "K2 L0 M0 N0 O0 P0 Q0 R0",
    "element_model": "https://upload.wikimedia.org/wikipedia/commons/thumb/8/84/Electron_shell_002_Helium_-_no_label.svg/1024px-Electron_shell_002_Helium_-_no_label.svg.png",

    "element_boiling_kelvin": "4.222 (K)",
    "element_boiling_celsius": "-272.20 (°C)",
    "element_boiling_fahrenheit": "-457.96 (°F)",
    "element_melting_kelvin": "0.95 (K)",
    "element_melting_celsius": "-268.928 (°C)",
    "element_melting_fahrenheit": "-452.070 (°F)",

    "element_electron_config": "1s^2",
    "element_ion_charge": "---",
    "element_ionization_energy": "24.58741 (eV)",
    "element_atomic_radius": "31 (pm)",
    "element_covalent_radius": "32 (pm)",
    "element_van_der_waals": "140 (pm)",

    "element_phase": "Gas",
    "element_fusion_heat": "0.02 (kJ/mol)",
    "element_specific_heat_capacity": "5.193 J/(g·K)",
    "element_vaporization_heat": "0.083 (kJ/mol)"
  }
]