[
  {
    "wikilink": "https://en.wikipedia.org/wiki/Titanium",
    "link": "https://upload.wikimedia.org/wikipedia/commons/thumb/d/db/Titan-crystal_bar.JPG/1024px-Titan-crystal_bar.JPG",

    "element": "Titanium",
    "element_year": "1791",
    "element_discovered_name": "William Gregor",
    "element_group": "Transition Metals",
    "element_appearance": "Silvery White-white Metallic",
    "element_electrons": "22",
    "element_protons": "22",
    "element_neutron_common": "26",

    "element_atomic_number": "22",
    "element_atomicmass": "47.867 (u)",
    "element_density": "4.506 (g/cm^3)",
    "element_electronegativty": "1.54",
    "element_block": "d - block",
    "element_shells_electrons": "K2 L8 M10 N2 O0 P0 Q0 R0",
    "element_model": "https://upload.wikimedia.org/wikipedia/commons/thumb/0/09/Electron_shell_022_Titanium_-_no_label.svg/800px-Electron_shell_022_Titanium_-_no_label.svg.png",

    "element_boiling_kelvin": "3560 (K)",
    "element_boiling_celsius": "3287 (°C)",
    "element_boiling_fahrenheit": "5949 (°F)",
    "element_melting_kelvin": "1941 (K)",
    "element_melting_celsius": "1668 (°C)",
    "element_melting_fahrenheit": "3034 (°F)",

    "element_electron_config": "3d^2 4s^2",
    "element_ion_charge": "Ti^4+, Ti^3+",
    "element_ionization_energy": "6.8281 (eV)",
    "element_atomic_radius": "76 (pm)",
    "element_covalent_radius": "136 (pm)",
    "element_van_der_waals": "--- (pm)",

    "element_phase": "Solid",
    "element_fusion_heat": "14.15 (kJ/mol)",
    "element_specific_heat_capacity": "0.523 J/(g·K)",
    "element_vaporization_heat": "425 (kJ/mol)"
  }
]