[
  {
    "wikilink": "https://en.wikipedia.org/wiki/Vanadium",
    "link": "https://upload.wikimedia.org/wikipedia/commons/thumb/9/98/Vanadium_etched.jpg/800px-Vanadium_etched.jpg",

    "element": "Vanadium",
    "element_year": "1801",
    "element_discovered_name": "Andrés Manuel del Río",
    "element_group": "Transition Metals",
    "element_appearance": "Blue-, silver-, gray metal",
    "element_electrons": "23",
    "element_protons": "23",
    "element_neutron_common": "28",

    "element_atomic_number": "23",
    "element_atomicmass": "50.9415 (u)",
    "element_density": "6.0 (g/cm^3)",
    "element_electronegativty": "1.63",
    "element_block": "d - block",
    "element_shells_electrons": "K2 L8 M11 N2 O0 P0 Q0 R0",
    "element_model": "https://upload.wikimedia.org/wikipedia/commons/thumb/a/a8/Electron_shell_023_Vanadium_-_no_label.svg/800px-Electron_shell_023_Vanadium_-_no_label.svg.png",

    "element_boiling_kelvin": "3680 (K)",
    "element_boiling_celsius": "3407 (°C)",
    "element_boiling_fahrenheit": "6165 (°F)",
    "element_melting_kelvin": "2183 (K)",
    "element_melting_celsius": "1910 (°C)",
    "element_melting_fahrenheit": "3470 (°F)",

    "element_electron_config": "3d^3 4s^2",
    "element_ion_charge": "V^3+, V^5+",
    "element_ionization_energy": "6.7462 (eV)",
    "element_atomic_radius": "171 (pm)",
    "element_covalent_radius": "125 (pm)",
    "element_van_der_waals": "--- (pm)",

    "element_phase": "Solid",
    "element_fusion_heat": "21.5 (kJ/mol)",
    "element_specific_heat_capacity": "0.489 J/(g·K)",
    "element_vaporization_heat": "453 (kJ/mol)"
  }
]