[
  {
    "wikilink": "https://en.wikipedia.org/wiki/Chromium",
    "link": "https://upload.wikimedia.org/wikipedia/commons/thumb/0/08/Chromium_crystals_and_1cm3_cube.jpg/1024px-Chromium_crystals_and_1cm3_cube.jpg",

    "element": "Chromium",
    "element_year": "1797",
    "element_discovered_name": "Louis Nicolas Vauquelin",
    "element_group": "Transition Metals",
    "element_appearance": "Silvery Metal",
    "element_electrons": "24",
    "element_protons": "24",
    "element_neutron_common": "28",

    "element_atomic_number": "24",
    "element_atomicmass": "51.9961 (u)",
    "element_density": "7.15 (g/cm^3)",
    "element_electronegativty": "1.66",
    "element_block": "d - block",
    "element_shells_electrons": "K2 L8 M13 N1 O0 P0 Q0 R0",
    "element_model": "https://upload.wikimedia.org/wikipedia/commons/thumb/6/67/Electron_shell_024_Chromium_-_no_label.svg/800px-Electron_shell_024_Chromium_-_no_label.svg.png",

    "element_boiling_kelvin": "2944 (K)",
    "element_boiling_celsius": "2671 (°C)",
    "element_boiling_fahrenheit": "4840 (°F)",
    "element_melting_kelvin": "2180 (K)",
    "element_melting_celsius": "1907 (°C)",
    "element_melting_fahrenheit": "3465 (°F)",

    "element_electron_config": "3d^5 4s^1",
    "element_ion_charge": "Cr^3+, Cr^2+",
    "element_ionization_energy": "6.7665 (eV)",
    "element_atomic_radius": "166 (pm)",
    "element_covalent_radius": "127 (pm)",
    "element_van_der_waals": "--- (pm)",

    "element_phase": "Solid",
    "element_fusion_heat": "21.0 (kJ/mol)",
    "element_specific_heat_capacity": "0.449 J/(g·K)",
    "element_vaporization_heat": "339.5 (kJ/mol)"
  }
]