[
  {
    "wikilink": "https://en.wikipedia.org/wiki/Cobalt",
    "link": "https://upload.wikimedia.org/wikipedia/commons/thumb/a/a8/Kobalt_electrolytic_and_1cm3_cube.jpg/1024px-Kobalt_electrolytic_and_1cm3_cube.jpg ",

    "element": "Cobalt",
    "element_year": "1735",
    "element_discovered_name": "Georg Brandt ",
    "element_group": "Transition Metals",
    "element_appearance": "Bluish Gray Metal",
    "element_electrons": "27",
    "element_protons": "27",
    "element_neutron_common": "32",

    "element_atomic_number": "27",
    "element_atomicmass": "58.9332 (u)",
    "element_density": "8.86 (g/cm^3)",
    "element_electronegativty": "1.88",
    "element_block": "d - block",
    "element_shells_electrons": "K2 L8 M15 N2 O0 P0 Q0 R0",
    "element_model": "https://upload.wikimedia.org/wikipedia/commons/thumb/8/80/Electron_shell_027_Cobalt_-_no_label.svg/800px-Electron_shell_027_Cobalt_-_no_label.svg.png",

    "element_boiling_kelvin": "3200 (K)",
    "element_boiling_celsius": "2927 (°C)",
    "element_boiling_fahrenheit": "5301 (°F)",
    "element_melting_kelvin": "1768 (K)",
    "element_melting_celsius": "1495 (°C)",
    "element_melting_fahrenheit": "2723 (°F)",

    "element_electron_config": "3d^7 4s^2",
    "element_ion_charge": "Co^2+, Co^3+",
    "element_ionization_energy": "7.8810 (eV)",
    "element_atomic_radius": "152 (pm)",
    "element_covalent_radius": "126 (pm)",
    "element_van_der_waals": "--- (pm)",

    "element_phase": "Solid",
    "element_fusion_heat": "16.06 (kJ/mol)",
    "element_specific_heat_capacity": "0.421 J/(g·K)",
    "element_vaporization_heat": "377 (kJ/mol)"
  }
]