[
  {
    "wikilink": "https://en.wikipedia.org/wiki/Nickel",
    "link": "https://upload.wikimedia.org/wikipedia/commons/5/57/Nickel_chunk.jpg",

    "element": "Nickel",
    "element_year": "1751",
    "element_discovered_name": "Axel Fredrik Cronstedt",
    "element_group": "Transition Metals",
    "element_appearance": "Lustrous, metallic, and silver with a gold tinge",
    "element_electrons": "28",
    "element_protons": "28",
    "element_neutron_common": "30",

    "element_atomic_number": "28",
    "element_atomicmass": "58.6934 (u)",
    "element_density": "8.90 (g/cm^3)",
    "element_electronegativty": "1.91",
    "element_block": "d - block",
    "element_shells_electrons": "K2 L8 M16 N2 O0 P0 Q0 R0",
    "element_model": "https://upload.wikimedia.org/wikipedia/commons/thumb/d/d2/Electron_shell_028_Nickel_-_no_label.svg/800px-Electron_shell_028_Nickel_-_no_label.svg.png",

    "element_boiling_kelvin": "3003 (K)",
    "element_boiling_celsius": "2730 (°C)",
    "element_boiling_fahrenheit": "4946 (°F)",
    "element_melting_kelvin": "1728 (K)",
    "element_melting_celsius": "1455 (°C)",
    "element_melting_fahrenheit": "2651 (°F)",

    "element_electron_config": "3d^8 4s^2",
    "element_ion_charge": "Ni^2+, Ni^3+",
    "element_ionization_energy": "7.6398 (eV)",
    "element_atomic_radius": "149 (pm)",
    "element_covalent_radius": "121 (pm)",
    "element_van_der_waals": "--- (pm)",

    "element_phase": "Solid",
    "element_fusion_heat": "17.04 (kJ/mol)",
    "element_specific_heat_capacity": "0.444 J/(g·K)",
    "element_vaporization_heat": "379 (kJ/mol)"
  }
]