[
  {
    "wikilink": "https://en.wikipedia.org/wiki/Copper",
    "link": "https://upload.wikimedia.org/wikipedia/commons/thumb/f/f0/NatCopper.jpg/1280px-NatCopper.jpg",

    "element": "Copper",
    "element_year": "Deep Antique",
    "element_discovered_name": "---",
    "element_group": "Transition Metals",
    "element_appearance": "Red-, orange metallic luster",
    "element_electrons": "29",
    "element_protons": "29",
    "element_neutron_common": "34",

    "element_atomic_number": "29",
    "element_atomicmass": "63.546 (u)",
    "element_density": "8.96 (g/cm^3)",
    "element_electronegativty": "1.90",
    "element_block": "d - block",
    "element_shells_electrons": "K2 L8 18 N1 O0 P0 Q0 R0",
    "element_model": "https://upload.wikimedia.org/wikipedia/commons/thumb/f/f7/Electron_shell_029_Copper_-_no_label.svg/1024px-Electron_shell_029_Copper_-_no_label.svg.png",

    "element_boiling_kelvin": "2835 (K)",
    "element_boiling_celsius": "2562 (°C)",
    "element_boiling_fahrenheit": "4643 (°F)",
    "element_melting_kelvin": "1357.77 (K)",
    "element_melting_celsius": "1084.62 (°C)",
    "element_melting_fahrenheit": "1984.32  (°F)",

    "element_electron_config": "3d^10 4s^1",
    "element_ion_charge": "Cu^2+, Cu^+",
    "element_ionization_energy": "7.72638 (eV)",
    "element_atomic_radius": "145 (pm)",
    "element_covalent_radius": "139 (pm)",
    "element_van_der_waals": "138",

    "element_phase": "Solid",
    "element_fusion_heat": "12.93 (kJ/mol)",
    "element_specific_heat_capacity": "0.385 J/(g·K)",
    "element_vaporization_heat": "300.4 (kJ/mol)"
  }
]