[
  {
    "wikilink": "https://en.wikipedia.org/wiki/Lithium",
    "link": "https://www.power-technology.com/wp-content/uploads/sites/7/2019/11/lithium.png",

    "element": "Lithium",
    "element_year": "1817",
    "element_discovered_name": "Johan August Arfwedson",
    "element_group": "Alkali Metals",
    "element_appearance": "Silvery White",
    "element_electrons": "3",
    "element_protons": "3",
    "element_neutron_common": "4",

    "element_atomic_number": "3",
    "element_atomicmass": "6.94 (u)",
    "element_density": "0.534 (g/cm^3)",
    "element_electronegativty": "0.98",
    "element_block": "s - block",
    "element_shells_electrons": "K2 L1 M0 N0 O0 P0 Q0 R0",
    "element_model": "https://upload.wikimedia.org/wikipedia/commons/thumb/a/ae/Electron_shell_003_Lithium_-_no_label.svg/1280px-Electron_shell_003_Lithium_-_no_label.svg.png",

    "element_boiling_kelvin": "1603 (K)",
    "element_boiling_celsius": "1330 (°C)",
    "element_boiling_fahrenheit": "2426 (°F)",
    "element_melting_kelvin": "453.65 (K)",
    "element_melting_celsius": "180.50 (°C)",
    "element_melting_fahrenheit": "356.90 (°F)",

    "element_electron_config": "2s^1",
    "element_ion_charge": "Li^+",
    "element_ionization_energy": "5.39172 (eV)",
    "element_atomic_radius": "167 (pm)",
    "element_covalent_radius": "134 (pm)",
    "element_van_der_waals": "182 (pm)",

    "element_phase": "Solid",
    "element_fusion_heat": "3.0 (kJ/mol)",
    "element_specific_heat_capacity": "3.582 J/(g·K)",
    "element_vaporization_heat": "147 (kJ/mol)"
  }
]