[
  {
    "wikilink": "https://en.wikipedia.org/wiki/Zinc",
    "link": "https://upload.wikimedia.org/wikipedia/commons/thumb/f/f9/Zinc_fragment_sublimed_and_1cm3_cube.jpg/1920px-Zinc_fragment_sublimed_and_1cm3_cube.jpg",

    "element": "Zinc",
    "element_year": "1000 BCE",
    "element_discovered_name": "---",
    "element_group": "Transition Metals",
    "element_appearance": "Silver- Gray",
    "element_electrons": "30",
    "element_protons": "30",
    "element_neutron_common": "34",

    "element_atomic_number": "30",
    "element_atomicmass": "65.38 (u)",
    "element_density": "7.14 (g/cm^3)",
    "element_electronegativty": "1.65",
    "element_block": "d - block",
    "element_shells_electrons": "K2 L8 18 N2 O0 P0 Q0 R0",
    "element_model": "https://upload.wikimedia.org/wikipedia/commons/thumb/c/c5/Electron_shell_030_Zinc_-_no_label.svg/1024px-Electron_shell_030_Zinc_-_no_label.svg.png",

    "element_boiling_kelvin": "1180 (K)",
    "element_boiling_celsius": "907 (°C)",
    "element_boiling_fahrenheit": "1665 (°F)",
    "element_melting_kelvin": "692.68 (K)",
    "element_melting_celsius": "419.53 (°C)",
    "element_melting_fahrenheit": "787.15 (°F)",

    "element_electron_config": "3d^10 4s^2",
    "element_ion_charge": "Zn^2+,",
    "element_ionization_energy": "9.3942 (eV)",
    "element_atomic_radius": "142 (pm)",
    "element_covalent_radius": "131 (pm)",
    "element_van_der_waals": "139",

    "element_phase": "Solid",
    "element_fusion_heat": "7.068 (kJ/mol)",
    "element_specific_heat_capacity": "0.388 J/(g·K)",
    "element_vaporization_heat": "119 (kJ/mol)"
  }
]