[
  {
    "wikilink": "https://en.wikipedia.org/wiki/Germanium",
    "link": "https://upload.wikimedia.org/wikipedia/commons/0/08/Polycrystalline-germanium.jpg",

    "element": "Germanium",
    "element_year": "1886",
    "element_discovered_name": "Clemens Winkler",
    "element_group": "Metalloids",
    "element_appearance": "Grayish White",
    "element_electrons": "32",
    "element_protons": "32",
    "element_neutron_common": "40",

    "element_atomic_number": "32",
    "element_atomicmass": "72.630 (u)",
    "element_density": "5.3234 (g/cm^3)",
    "element_electronegativty": "2.01",
    "element_block": "p - block",
    "element_shells_electrons": "K2 L8 18 N4 O0 P0 Q0 R0",
    "element_model": "https://upload.wikimedia.org/wikipedia/commons/thumb/6/6f/Electron_shell_032_Germanium_-_no_label.svg/1280px-Electron_shell_032_Germanium_-_no_label.svg.png",

    "element_boiling_kelvin": "3106 (K)",
    "element_boiling_celsius": "2833 (°C)",
    "element_boiling_fahrenheit": "5131 (°F)",
    "element_melting_kelvin": "1211.40  (K)",
    "element_melting_celsius": "938.25 (°C)",
    "element_melting_fahrenheit": "1720.85 (°F)",

    "element_electron_config": "3d^10 4s^2 4p^2",
    "element_ion_charge": "Ge^4+,",
    "element_ionization_energy": "7.8994 (eV)",
    "element_atomic_radius": "125 (pm)",
    "element_covalent_radius": "122 (pm)",
    "element_van_der_waals": "211",

    "element_phase": "Solid",
    "element_fusion_heat": "36.94 (kJ/mol)",
    "element_specific_heat_capacity": "0.320 J/(g·K)",
    "element_vaporization_heat": "334 (kJ/mol)"
  }
]