[
  {
    "wikilink": "https://en.wikipedia.org/wiki/Selenium",
    "link": "https://upload.wikimedia.org/wikipedia/commons/4/47/SeBlackRed.jpg",

    "element": "Selenium",
    "element_year": "1817",
    "element_discovered_name": "Jöns Jakob Berzelius",
    "element_group": "Other Nonmetals",
    "element_appearance": "Black, Red and Gray",
    "element_electrons": "34",
    "element_protons": "34",
    "element_neutron_common": "46",

    "element_atomic_number": "34",
    "element_atomicmass": "78.971 (u)",
    "element_density": "Gray: 4.81 (g/cm^3)",
    "element_electronegativty": "2.55",
    "element_block": "p - block",
    "element_shells_electrons": "K2 L8 18 N6 O0 P0 Q0 R0",
    "element_model": "https://upload.wikimedia.org/wikipedia/commons/thumb/8/8c/Electron_shell_034_Selenium_%28polyatomic_nonmetal%29_-_no_label.svg/1280px-Electron_shell_034_Selenium_%28polyatomic_nonmetal%29_-_no_label.svg.png",

    "element_boiling_kelvin": "958 (K)",
    "element_boiling_celsius": "685 (°C)",
    "element_boiling_fahrenheit": "1265 (°F)",
    "element_melting_kelvin": "494 (K)",
    "element_melting_celsius": "221 (°C)",
    "element_melting_fahrenheit": "430 (°F)",

    "element_electron_config": "3d^10 4s^2 4p^4",
    "element_ion_charge": "Se^2-",
    "element_ionization_energy": "9.75238 (eV)",
    "element_atomic_radius": "103 (pm)",
    "element_covalent_radius": "116 (pm)",
    "element_van_der_waals": "190 (pm)",

    "element_phase": "Solid",
    "element_fusion_heat": "Gray: 6.69 (kJ/mol)",
    "element_specific_heat_capacity": "0.321 J/(g·K)",
    "element_vaporization_heat": "26 (kJ/mol)"
  }
]