[
  {
    "wikilink": "https://en.wikipedia.org/wiki/Bromine",
    "link": "https://upload.wikimedia.org/wikipedia/commons/thumb/3/35/Bromine_vial_in_acrylic_cube.jpg/1280px-Bromine_vial_in_acrylic_cube.jpg",

    "element": "Bromine",
    "element_year": "1825",
    "element_discovered_name": "Antoine Jérôme Balard ",
    "element_group": "Halogens",
    "element_appearance": "Reddish- Brown",
    "element_electrons": "35",
    "element_protons": "35",
    "element_neutron_common": "44",

    "element_atomic_number": "35",
    "element_atomicmass": "79.904 (u)",
    "element_density": "Br2: 3.1028 (g/cm^3)",
    "element_electronegativty": "2.96",
    "element_block": "p - block",
    "element_shells_electrons": "K2 L8 18 N7 O0 P0 Q0 R0",
    "element_model": "https://upload.wikimedia.org/wikipedia/commons/thumb/8/8c/Electron_shell_034_Selenium_%28polyatomic_nonmetal%29_-_no_label.svg/1280px-Electron_shell_034_Selenium_%28polyatomic_nonmetal%29_-_no_label.svg.png",

    "element_boiling_kelvin": "Br2: 332.0 (K)",
    "element_boiling_celsius": "Br2: 58.8 (°C)",
    "element_boiling_fahrenheit": "Br2: 137.8 (°F)",
    "element_melting_kelvin": "Br2: 265.8 (K)",
    "element_melting_celsius": "Br2: -7.2 (°C)",
    "element_melting_fahrenheit": "Br2: 19 (°F)",

    "element_electron_config": "3d^10 4s^2 4p^5",
    "element_ion_charge": "Br^-",
    "element_ionization_energy": "11.81381 (eV)",
    "element_atomic_radius": "94 (pm)",
    "element_covalent_radius": "114 (pm)",
    "element_van_der_waals": "185 (pm)",

    "element_phase": "Liquid",
    "element_fusion_heat": "Br2: 10.57 (kJ/mol)",
    "element_specific_heat_capacity": "Br2: 0.474 J/(g·K)",
    "element_vaporization_heat": "Br2: 29.96 (kJ/mol)"
  }
]