[
  {
    "wikilink": "https://en.wikipedia.org/wiki/Rubidium",
    "link": "https://upload.wikimedia.org/wikipedia/commons/thumb/c/c9/Rb5.JPG/1920px-Rb5.JPG",

    "element": "Rubidium",
    "element_year": "1861",
    "element_discovered_name": "Robert Bunsen",
    "element_group": "Alkali Metals",
    "element_appearance": "Gray White",
    "element_electrons": "37",
    "element_protons": "37",
    "element_neutron_common": "48",

    "element_atomic_number": "37",
    "element_atomicmass": "85.4678 (u)",
    "element_density": "1.53 (g/cm^3)",
    "element_electronegativty": "0.82",
    "element_block": "s - block",
    "element_shells_electrons": "K2 L8 18 N8 O1 P0 Q0 R0",
    "element_model": "https://upload.wikimedia.org/wikipedia/commons/thumb/3/36/Electron_shell_037_Rubidium_-_no_label.svg/1280px-Electron_shell_037_Rubidium_-_no_label.svg.png",

    "element_boiling_kelvin": "961 (K)",
    "element_boiling_celsius": "688 (°C)",
    "element_boiling_fahrenheit": "1270 (°F)",
    "element_melting_kelvin": "312.45 (K)",
    "element_melting_celsius": "39.30 (°C)",
    "element_melting_fahrenheit": "102.74 (°F)",

    "element_electron_config": "5s^1",
    "element_ion_charge": "Rb^+",
    "element_ionization_energy": "4.17713 (eV)",
    "element_atomic_radius": "265 (pm)",
    "element_covalent_radius": "211 (pm)",
    "element_van_der_waals": "303 (pm)",

    "element_phase": "Solid",
    "element_fusion_heat": "2.19 (kJ/mol)",
    "element_specific_heat_capacity": "0.363 J/(g·K)",
    "element_vaporization_heat": "75.77 (kJ/mol)"
  }
]