[
  {
    "wikilink": "https://en.wikipedia.org/wiki/Strontium",
    "link": "https://upload.wikimedia.org/wikipedia/commons/thumb/4/41/Strontium_destilled_crystals.jpg/2560px-Strontium_destilled_crystals.jpg",

    "element": "Strontium",
    "element_year": "1787",
    "element_discovered_name": "William Cruickshank",
    "element_group": "Alkaline Earth Metals",
    "element_appearance": "Silvery White Metallic with a pale yellow tint",
    "element_electrons": "38",
    "element_protons": "38",
    "element_neutron_common": "50",

    "element_atomic_number": "38",
    "element_atomicmass": "87.62 (u)",
    "element_density": "2.64 (g/cm^3)",
    "element_electronegativty": "0.95",
    "element_block": "s - block",
    "element_shells_electrons": "K2 L8 18 N8 O2 P0 Q0 R0",
    "element_model": "https://upload.wikimedia.org/wikipedia/commons/thumb/8/83/Electron_shell_038_Strontium_-_no_label.svg/1280px-Electron_shell_038_Strontium_-_no_label.svg.png",

    "element_boiling_kelvin": "1650 (K)",
    "element_boiling_celsius": "1377 (°C)",
    "element_boiling_fahrenheit": "2511 (°F)",
    "element_melting_kelvin": "1050 (K)",
    "element_melting_celsius": "777 (°C)",
    "element_melting_fahrenheit": "1431 (°F)",

    "element_electron_config": "5s^2",
    "element_ion_charge": "Sr^2+",
    "element_ionization_energy": "5.6949 (eV)",
    "element_atomic_radius": "219 (pm)",
    "element_covalent_radius": "192 (pm)",
    "element_van_der_waals": "249 (pm)",

    "element_phase": "Solid",
    "element_fusion_heat": "7.43 (kJ/mol)",
    "element_specific_heat_capacity": "0.301 J/(g·K)",
    "element_vaporization_heat": "136.9 (kJ/mol)"
  }
]