[
  {
    "wikilink": "https://en.wikipedia.org/wiki/Yttrium",
    "link": "https://upload.wikimedia.org/wikipedia/commons/thumb/1/19/Yttrium_sublimed_dendritic_and_1cm3_cube.jpg/1920px-Yttrium_sublimed_dendritic_and_1cm3_cube.jpg",

    "element": "Yttrium",
    "element_year": "1794",
    "element_discovered_name": "Johan Gadolin",
    "element_group": "Transition Metals",
    "element_appearance": "Silvery White",
    "element_electrons": "39",
    "element_protons": "39",
    "element_neutron_common": "50",

    "element_atomic_number": "39",
    "element_atomicmass": "88.9058 (u)",
    "element_density": "4.47 (g/cm^3)",
    "element_electronegativty": "1.22",
    "element_block": "d - block",
    "element_shells_electrons": "K2 L8 18 N9 O2 P0 Q0 R0",
    "element_model": "https://upload.wikimedia.org/wikipedia/commons/thumb/a/a2/Electron_shell_039_Yttrium_-_no_label.svg/1280px-Electron_shell_039_Yttrium_-_no_label.svg.png",

    "element_boiling_kelvin": "3203 (K)",
    "element_boiling_celsius": "2930 (°C)",
    "element_boiling_fahrenheit": "5306 (°F)",
    "element_melting_kelvin": "1799 (K)",
    "element_melting_celsius": "1526 (°C)",
    "element_melting_fahrenheit": "2779 (°F)",

    "element_electron_config": "4d^1 5s^2",
    "element_ion_charge": "Y^3+",
    "element_ionization_energy": "6.2171 (eV)",
    "element_atomic_radius": "212 (pm)",
    "element_covalent_radius": "162 (pm)",
    "element_van_der_waals": "--- (pm)",

    "element_phase": "Solid",
    "element_fusion_heat": "11.4 (kJ/mol)",
    "element_specific_heat_capacity": "0.298 J/(g·K)",
    "element_vaporization_heat": "380 (kJ/mol)"
  }
]