[
  {
    "wikilink": "https://en.wikipedia.org/wiki/Niobium",
    "link": "https://upload.wikimedia.org/wikipedia/commons/thumb/f/f2/Niobium_crystals_and_1cm3_cube.jpg/1024px-Niobium_crystals_and_1cm3_cube.jpg",

    "element": "Niobium",
    "element_year": "1801",
    "element_discovered_name": "Charles Hatchett",
    "element_group": "Transition Metals",
    "element_appearance": "Gray metallic, bluish when oxidised",
    "element_electrons": "41",
    "element_protons": "41",
    "element_neutron_common": "52",

    "element_atomic_number": "41",
    "element_atomicmass": "92.9064 (u)",
    "element_density": "8.57 (g/cm^3)",
    "element_electronegativty": "1.6",
    "element_block": "d - block",
    "element_shells_electrons": "K2 L8 18 N12 O1 P0 Q0 R0",
    "element_model": "https://upload.wikimedia.org/wikipedia/commons/thumb/7/71/Electron_shell_041_Niobium_-_no_label.svg/800px-Electron_shell_041_Niobium_-_no_label.svg.png",

    "element_boiling_kelvin": "5017 (K)",
    "element_boiling_celsius": "4744 (°C)",
    "element_boiling_fahrenheit": "8571 (°F)",
    "element_melting_kelvin": "2750 (K)",
    "element_melting_celsius": "2477 (°C)",
    "element_melting_fahrenheit": "4491 (°F)",

    "element_electron_config": "4d^4 5s^1",
    "element_ion_charge": "Nb^5+, Nb^3+",
    "element_ionization_energy": "6.75885 (eV)",
    "element_atomic_radius": "198 (pm)",
    "element_covalent_radius": "137 (pm)",
    "element_van_der_waals": "--- (pm)",

    "element_phase": "Solid",
    "element_fusion_heat": "30 (kJ/mol)",
    "element_specific_heat_capacity": "0.265 J/(g·K)",
    "element_vaporization_heat": "689.9 (kJ/mol)"
  }
]