[
  {
    "wikilink": "https://en.wikipedia.org/wiki/Molybdenum",
    "link": "https://upload.wikimedia.org/wikipedia/commons/thumb/3/32/Molybdenum_crystaline_fragment_and_1cm3_cube.jpg/1920px-Molybdenum_crystaline_fragment_and_1cm3_cube.jpg",

    "element": "Molybdenum",
    "element_year": "1778",
    "element_discovered_name": "Carl Wilhelm Scheele",
    "element_group": "Transition Metals",
    "element_appearance": "Gray Metallic",
    "element_electrons": "42",
    "element_protons": "42",
    "element_neutron_common": "56",

    "element_atomic_number": "42",
    "element_atomicmass": "95.95 (u)",
    "element_density": "10.2 (g/cm^3)",
    "element_electronegativty": "2.16",
    "element_block": "d - block",
    "element_shells_electrons": "K2 L8 18 N13 O1 P0 Q0 R0",
    "element_model": "https://upload.wikimedia.org/wikipedia/commons/thumb/c/c9/Electron_shell_042_Molybdenum_-_no_label.svg/1024px-Electron_shell_042_Molybdenum_-_no_label.svg.png",

    "element_boiling_kelvin": "4912 (K)",
    "element_boiling_celsius": "4639 (°C)",
    "element_boiling_fahrenheit": "8382 (°F)",
    "element_melting_kelvin": "2896 (K)",
    "element_melting_celsius": "2623 (°C)",
    "element_melting_fahrenheit": "4753 (°F)",

    "element_electron_config": "4d^5 5s^1",
    "element_ion_charge": "Mo^6+",
    "element_ionization_energy": "7.09243 (eV)",
    "element_atomic_radius": "190 (pm)",
    "element_covalent_radius": "145 (pm)",
    "element_van_der_waals": "--- (pm)",

    "element_phase": "Solid",
    "element_fusion_heat": "37.48 (kJ/mol)",
    "element_specific_heat_capacity": "0.251 J/(g·K)",
    "element_vaporization_heat": "617 (kJ/mol)"
  }
]