[
  {
    "wikilink": "https://en.wikipedia.org/wiki/Silver",
    "link": "https://upload.wikimedia.org/wikipedia/commons/thumb/5/55/Silver_crystal.jpg/800px-Silver_crystal.jpg",

    "element": "Silver",
    "element_year": "Deep Antiquity",
    "element_discovered_name": "---",
    "element_group": "Transition Metals",
    "element_appearance": "Lustrous White Metal",
    "element_electrons": "47",
    "element_protons": "47",
    "element_neutron_common": "60",

    "element_atomic_number": "47",
    "element_atomicmass": "107.8682 (u)",
    "element_density": "10.5 (g/cm^3)",
    "element_electronegativty": "1.93",
    "element_block": "d - block",
    "element_shells_electrons": "K2 L8 18 N18 O1 P0 Q0 R0",
    "element_model": "https://upload.wikimedia.org/wikipedia/commons/thumb/2/22/Electron_shell_047_Silver_-_no_label.svg/800px-Electron_shell_047_Silver_-_no_label.svg.png",

    "element_boiling_kelvin": "2435 (K)",
    "element_boiling_celsius": "2162 (°C)",
    "element_boiling_fahrenheit": "3924 (°F)",
    "element_melting_kelvin": "1234.93 (K)",
    "element_melting_celsius": "961.78 (°C)",
    "element_melting_fahrenheit": "1763.2 (°F)",

    "element_electron_config": "4d^10 5s^1",
    "element_ion_charge": "Ag^+",
    "element_ionization_energy": "7.5762 (eV)",
    "element_atomic_radius": "165 (pm)",
    "element_covalent_radius": "153 (pm)",
    "element_van_der_waals": "172",

    "element_phase": "Solid",
    "element_fusion_heat": "11.28 (kJ/mol)",
    "element_specific_heat_capacity": "0.235 J/(g·K)",
    "element_vaporization_heat": "258 (kJ/mol)"
  }
]