[
  {
    "wikilink": "https://en.wikipedia.org/wiki/Indium",
    "link": "https://upload.wikimedia.org/wikipedia/commons/thumb/b/b8/Indium.jpg/800px-Indium.jpg",

    "element": "Indium",
    "element_year": "1863",
    "element_discovered_name": "Ferdinand Reich",
    "element_group": "Post-Transition Metals",
    "element_appearance": "Silvery bluish-gray Metallic",
    "element_electrons": "49",
    "element_protons": "49",
    "element_neutron_common": "67",

    "element_atomic_number": "49",
    "element_atomicmass": "114.818 (u)",
    "element_density": "7.31 (g/cm^3)",
    "element_electronegativty": "1.78",
    "element_block": "p - block",
    "element_shells_electrons": "K2 L8 18 N18 O3 P0 Q0 R0",
    "element_model": "https://upload.wikimedia.org/wikipedia/commons/thumb/1/18/Electron_shell_049_Indium_-_no_label.svg/800px-Electron_shell_049_Indium_-_no_label.svg.png",

    "element_boiling_kelvin": "2345 (K)",
    "element_boiling_celsius": "2072 (°C)",
    "element_boiling_fahrenheit": "3762 (°F)",
    "element_melting_kelvin": "429.7485 (K)",
    "element_melting_celsius": "156.5985 (°C)",
    "element_melting_fahrenheit": "313.8773 (°F)",

    "element_electron_config": "4d^10 5s^2 5p^1",
    "element_ion_charge": "In^3+",
    "element_ionization_energy": "5.78636 (eV)",
    "element_atomic_radius": "156 (pm)",
    "element_covalent_radius": "144 (pm)",
    "element_van_der_waals": "193",

    "element_phase": "Solid",
    "element_fusion_heat": "3.281 (kJ/mol)",
    "element_specific_heat_capacity": "0.233 J/(g·K)",
    "element_vaporization_heat": "231.8 (kJ/mol)"
  }
]