[
  {
    "wikilink": "https://en.wikipedia.org/wiki/Tin",
    "link": "https://upload.wikimedia.org/wikipedia/commons/thumb/2/2b/Sn-Alpha-Beta.jpg/1024px-Sn-Alpha-Beta.jpg",

    "element": "Tin",
    "element_year": "Deep Antiquity",
    "element_discovered_name": "---",
    "element_group": "Post-Transition Metals",
    "element_appearance": "Silvery White or Gray",
    "element_electrons": "50",
    "element_protons": "50",
    "element_neutron_common": "70",

    "element_atomic_number": "50",
    "element_atomicmass": "118.710 (u)",
    "element_density": "7.265 (g/cm^3)",
    "element_electronegativty": "1.96",
    "element_block": "p - block",
    "element_shells_electrons": "K2 L8 18 N18 O4 P0 Q0 R0",
    "element_model": "https://upload.wikimedia.org/wikipedia/commons/thumb/1/13/Electron_shell_050_Tin_-_no_label.svg/800px-Electron_shell_050_Tin_-_no_label.svg.png",

    "element_boiling_kelvin": "2875 (K)",
    "element_boiling_celsius": "2602 (°C)",
    "element_boiling_fahrenheit": "4716 (°F)",
    "element_melting_kelvin": "505.08 (K)",
    "element_melting_celsius": "231.93 (°C)",
    "element_melting_fahrenheit": "449.47 (°F)",

    "element_electron_config": "4d^10 5s^2 5p^2",
    "element_ion_charge": "Sn^4+, Sn^2+",
    "element_ionization_energy": "7.3439 (eV)",
    "element_atomic_radius": "145 (pm)",
    "element_covalent_radius": "141 (pm)",
    "element_van_der_waals": "217",

    "element_phase": "Solid",
    "element_fusion_heat": "7.173 (kJ/mol)",
    "element_specific_heat_capacity": "0.228 J/(g·K)",
    "element_vaporization_heat": "296.1 (kJ/mol)"
  }
]