[
  {
    "wikilink": "https://en.wikipedia.org/wiki/Tellurium",
    "link": "https://upload.wikimedia.org/wikipedia/commons/c/c1/Tellurium2.jpg",

    "element": "Tellurium",
    "element_year": "1782",
    "element_discovered_name": "Franz-Joseph Müller von Reichenstein ",
    "element_group": "Metalloids",
    "element_appearance": "Silvery Lustrous Gray",
    "element_electrons": "52",
    "element_protons": "52",
    "element_neutron_common": "78",

    "element_atomic_number": "52",
    "element_atomicmass": "127.60 (u)",
    "element_density": "6.24 (g/cm^3)",
    "element_electronegativty": "2.1",
    "element_block": "p - block",
    "element_shells_electrons": "K2 L8 18 N18 O6 P0 Q0 R0",
    "element_model": "https://upload.wikimedia.org/wikipedia/commons/thumb/2/24/Electron_shell_052_Tellurium_-_no_label.svg/1280px-Electron_shell_052_Tellurium_-_no_label.svg.png",

    "element_boiling_kelvin": "1261 (K)",
    "element_boiling_celsius": "988 (°C)",
    "element_boiling_fahrenheit": "1810 (°F)",
    "element_melting_kelvin": "722.66 (K)",
    "element_melting_celsius": "449.51 (°C)",
    "element_melting_fahrenheit": "841.12 (°F)",

    "element_electron_config": "4d^10 5s^2 5p^4",
    "element_ion_charge": "Te^2-",
    "element_ionization_energy": "9.0096 (eV)",
    "element_atomic_radius": "123 (pm)",
    "element_covalent_radius": "135 (pm)",
    "element_van_der_waals": "206",

    "element_phase": "Solid",
    "element_fusion_heat": "17.49 (kJ/mol)",
    "element_specific_heat_capacity": "0.202 J/(g·K)",
    "element_vaporization_heat": "114.1 (kJ/mol)"
  }
]