[
  {
    "wikilink": "https://en.wikipedia.org/wiki/Iodine",
    "link": "https://upload.wikimedia.org/wikipedia/commons/thumb/0/0a/Sample_of_iodine.jpg/2560px-Sample_of_iodine.jpg",

    "element": "Iodine",
    "element_year": "1811",
    "element_discovered_name": "Bernard Courtois",
    "element_group": "Halogens",
    "element_appearance": "Lustrous Metallic Gray",
    "element_electrons": "53",
    "element_protons": "53",
    "element_neutron_common": "74",

    "element_atomic_number": "53",
    "element_atomicmass": "126.9045 (u)",
    "element_density": "4.933 (g/cm^3)",
    "element_electronegativty": "2.66",
    "element_block": "p - block",
    "element_shells_electrons": "K2 L8 18 N18 O7 P0 Q0 R0",
    "element_model": "https://upload.wikimedia.org/wikipedia/commons/thumb/5/5e/Electron_shell_053_Iodine_%28diatomic_nonmetal%29_-_no_label.svg/1280px-Electron_shell_053_Iodine_%28diatomic_nonmetal%29_-_no_label.svg.png",

    "element_boiling_kelvin": "457.4 (K)",
    "element_boiling_celsius": "184.3 (°C)",
    "element_boiling_fahrenheit": "363.7 (°F)",
    "element_melting_kelvin": "386.85 (K)",
    "element_melting_celsius": "113.7 (°C)",
    "element_melting_fahrenheit": "236.66 (°F)",

    "element_electron_config": "4d^10 5s^2 5p^5",
    "element_ion_charge": "I^-",
    "element_ionization_energy": "10.45126 (eV)",
    "element_atomic_radius": "115 (pm)",
    "element_covalent_radius": "133 (pm)",
    "element_van_der_waals": "198",

    "element_phase": "Solid",
    "element_fusion_heat": "15.52 (I2) (kJ/mol)",
    "element_specific_heat_capacity": "0.214 (I2) J/(g·K)",
    "element_vaporization_heat": "41.57 (I2) (kJ/mol)"
  }
]