[
  {
    "wikilink": "https://en.wikipedia.org/wiki/Lanthanum",
    "link": "https://upload.wikimedia.org/wikipedia/commons/8/8c/Lanthanum-2.jpg",

    "element": "Lanthanum",
    "element_year": "1838",
    "element_discovered_name": "Carl Gustaf Mosander",
    "element_group": "Lanthanoids",
    "element_appearance": "Silvery White",
    "element_electrons": "57",
    "element_protons": "57",
    "element_neutron_common": "82",

    "element_atomic_number": "57",
    "element_atomicmass": "138.905 (u)",
    "element_density": "6.15 (g/cm^3)",
    "element_electronegativty": "1.10",
    "element_block": "d - block",
    "element_shells_electrons": "K2 L8 18 N18 O9 P2 Q0 R0",
    "element_model": "https://upload.wikimedia.org/wikipedia/commons/thumb/1/14/Electron_shell_057_Lanthanum_-_no_label.svg/1280px-Electron_shell_057_Lanthanum_-_no_label.svg.png",

    "element_boiling_kelvin": "1193 (K)",
    "element_boiling_celsius": "920 (°C)",
    "element_boiling_fahrenheit": "1688 (°F)",
    "element_melting_kelvin": "3737 (K)",
    "element_melting_celsius": "3464 (°C)",
    "element_melting_fahrenheit": "6267 (°F)",

    "element_electron_config": "5d^1 6s^2",
    "element_ion_charge": "La^3+",
    "element_ionization_energy": "5.5769 (eV)",
    "element_atomic_radius": "195 (pm)",
    "element_covalent_radius": "169 (pm)",
    "element_van_der_waals": "---",

    "element_phase": "Solid",
    "element_fusion_heat": "6.20 (kJ/mol)",
    "element_specific_heat_capacity": "0.195 J/(g·K)",
    "element_vaporization_heat": "400 (kJ/mol)"
  }
]