[
  {
    "wikilink": "https://en.wikipedia.org/wiki/Praseodymium",
    "link": "https://upload.wikimedia.org/wikipedia/commons/c/c7/Praseodymium.jpg",

    "element": "Praseodymium",
    "element_year": "1885",
    "element_discovered_name": "Carl Auer von Welsbach",
    "element_group": "Lanthanoids",
    "element_appearance": "Silvery White",
    "element_electrons": "58",
    "element_protons": "58",
    "element_neutron_common": "82",

    "element_atomic_number": "58",
    "element_atomicmass": "140.116 (u)",
    "element_density": "6.770 (g/cm^3)",
    "element_electronegativty": "1.12",
    "element_block": "f - block",
    "element_shells_electrons": "K2 L8 18 N19 O9 P2 Q0 R0",
    "element_model": "https://upload.wikimedia.org/wikipedia/commons/thumb/e/ea/Electron_shell_058_Cerium_-_no_label.svg/1280px-Electron_shell_058_Cerium_-_no_label.svg.png",

    "element_boiling_kelvin": "1068 (K)",
    "element_boiling_celsius": "795 (°C)",
    "element_boiling_fahrenheit": "1463 (°F)",
    "element_melting_kelvin": "3716 (K)",
    "element_melting_celsius": "3443 (°C)",
    "element_melting_fahrenheit": "6229 (°F)",

    "element_electron_config": "4f^1 5d^1 6s^2",
    "element_ion_charge": "Ce^3+",
    "element_ionization_energy": "5.5387 (eV)",
    "element_atomic_radius": "158 (pm)",
    "element_covalent_radius": "--- (pm)",
    "element_van_der_waals": "---",

    "element_phase": "Solid",
    "element_fusion_heat": "5.46 (kJ/mol)",
    "element_specific_heat_capacity": "0.192 J/(g·K)",
    "element_vaporization_heat": "398 (kJ/mol)"
  }
]