[
  {
    "wikilink": "https://en.wikipedia.org/wiki/Carbon",
    "link": "https://upload.wikimedia.org/wikipedia/commons/f/f0/Graphite-and-diamond-with-scale.jpg",

    "element": "Carbon",
    "element_year": "Deep Antiquity",
    "element_discovered_name": "---",
    "element_group": "Reactive Nonmetal",
    "element_appearance": "Graphite: Black, Diamond: Clear",
    "element_electrons": "6",
    "element_protons": "6",
    "element_neutron_common": "6",

    "element_atomic_number": "6",
    "element_atomicmass": "12.011 (u)",
    "element_density": "2.2 (g/cm^3)",
    "element_electronegativty": "2.55",
    "element_block": "p - block",
    "element_shells_electrons": "K2 L4 M0 N0 O0 P0 Q0 R0",
    "element_model": "https://upload.wikimedia.org/wikipedia/commons/thumb/9/9f/Electron_shell_006_Carbon_%28polyatomic_nonmetal%29_-_no_label.svg/1280px-Electron_shell_006_Carbon_%28polyatomic_nonmetal%29_-_no_label.svg.png",

    "element_sublimation_kelvin": "3915 (K)",
    "element_sublimation_celsius": "3642 (°C)",
    "element_sublimation_fahrenheit": "6588 (°F)",

    "element_electron_config": "2s^2 2p^2",
    "element_ion_charge": "---",
    "element_ionization_energy": "11.26030 (eV)",
    "element_atomic_radius": "67 (pm)",
    "element_covalent_radius": "77 (pm)",
    "element_van_der_waals": "170 (pm)",

    "element_phase": "Solid",
    "element_fusion_heat": "117 (kJ/mol)",
    "element_specific_heat_capacity": "0.709 J/(g·K)",
    "element_vaporization_heat": "715 (kJ/mol)"
  }
]