[
  {
    "wikilink": "https://en.wikipedia.org/wiki/Neodymium",
    "link": "https://upload.wikimedia.org/wikipedia/commons/b/ba/Neodymium2.jpg",

    "element": "Neodymium",
    "element_year": "1885",
    "element_discovered_name": "Carl Auer von Welsbach",
    "element_group": "Lanthanoids",
    "element_appearance": "Silvery White",
    "element_electrons": "60",
    "element_protons": "60",
    "element_neutron_common": "82",

    "element_atomic_number": "60",
    "element_atomicmass": "144.242 (u)",
    "element_density": "7.01 (g/cm^3)",
    "element_electronegativty": "1.14",
    "element_block": "f - block",
    "element_shells_electrons": "K2 L8 18 N22 O8 P2 Q0 R0",
    "element_model": "https://upload.wikimedia.org/wikipedia/commons/thumb/b/b3/Electron_shell_060_Neodymium_-_no_label.svg/800px-Electron_shell_060_Neodymium_-_no_label.svg.png",

    "element_boiling_kelvin": "3347 (K)",
    "element_boiling_celsius": "3074 (°C)",
    "element_boiling_fahrenheit": "5565 (°F)",
    "element_melting_kelvin": "1297 (K)",
    "element_melting_celsius": "1024 (°C)",
    "element_melting_fahrenheit": "1875 (°F)",

    "element_electron_config": "4f^4 6s^2",
    "element_ion_charge": "Nd^3+",
    "element_ionization_energy": "5.5250 (eV)",
    "element_atomic_radius": "206 (pm)",
    "element_covalent_radius": "--- (pm)",
    "element_van_der_waals": "---",

    "element_phase": "Solid",
    "element_fusion_heat": "7.14 (kJ/mol)",
    "element_specific_heat_capacity": "0.190 J/(g·K)",
    "element_vaporization_heat": "289 (kJ/mol)"
  }
]