[
  {
    "wikilink": "https://en.wikipedia.org/wiki/Fluorine",
    "link": "https://www.thoughtco.com/thmb/rt0-YEcTOFfKmttM805rtJvfdsw=/600x600/filters:fill(auto,1)/fluorinesimulant-56a12c323df78cf772681c61.jpg",

    "element": "Fluorine",
    "element_year": "1810",
    "element_discovered_name": "André-Marie Ampère ",
    "element_group": "Reactive Nonmetal",
    "element_appearance": "Yellow",
    "element_electrons": "9",
    "element_protons": "9",
    "element_neutron_common": "10",

    "element_atomic_number": "9",
    "element_atomicmass": "18.9984 (u)",
    "element_density": "0.001696 (g/cm^3)",
    "element_electronegativty": "3.98",
    "element_block": "p - block",
    "element_shells_electrons": "K2 L7 M0 N0 O0 P0 Q0 R0",
    "element_model": "https://upload.wikimedia.org/wikipedia/commons/thumb/b/ba/Electron_shell_009_Fluorine_%28diatomic_nonmetal%29_-_no_label.svg/1280px-Electron_shell_009_Fluorine_%28diatomic_nonmetal%29_-_no_label.svg.png",

    "element_boiling_kelvin": "85.03 (K)",
    "element_boiling_celsius": "−188.11 (°C)",
    "element_boiling_fahrenheit": "−306.60 (°F)",
    "element_melting_kelvin": "53.48 (K)",
    "element_melting_celsius": "−219.67 (°C)",
    "element_melting_fahrenheit": "−363.41 (°F)",

    "element_electron_config": "2s^2 2p^5",
    "element_ion_charge": "F^-",
    "element_ionization_energy": "17.42282 (eV)",
    "element_atomic_radius": "42 (pm)",
    "element_covalent_radius": "71 (pm)",
    "element_van_der_waals": "147 (pm)",

    "element_phase": "Gas",
    "element_fusion_heat": "0.51 (F2) (kJ/mol)",
    "element_specific_heat_capacity": "0.824 (F2) J/(g·K)",
    "element_vaporization_heat": "6.62 (F2) (kJ/mol)",

    "iso_1": "F-17",
    "iso_mass_1": "17.00209524",
    "iso_half_1": "64.370 (s)",
    "iso_Z_1": "9",
    "iso_N_1": "8",
    "iso_A_1": "17",

    "iso_2": "F-18",
    "iso_mass_2": "18.0009373",
    "iso_half_2": "109.739 (min)",
    "iso_Z_2": "9",
    "iso_N_2": "9",
    "iso_A_2": "18",

    "iso_3": "F-19",
    "iso_mass_3": "18.9984031629",
    "iso_half_3": "Stable",
    "iso_Z_3": "9",
    "iso_N_3": "10",
    "iso_A_3": "19",

    "iso_4": "F-20",
    "iso_mass_4": "19.99998125",
    "iso_half_4": "11.163 (s)",
    "iso_Z_4": "9",
    "iso_N_4": "11",
    "iso_A_4": "20",

    "iso_5": "F-21",
    "iso_mass_5": "20.9999489",
    "iso_half_5": "4.158 (s)",
    "iso_Z_5": "9",
    "iso_N_5": "12",
    "iso_A_5": "21"
  }
]