[
  {
    "wikilink": "https://en.wikipedia.org/wiki/Aluminium",
    "link": "https://upload.wikimedia.org/wikipedia/commons/5/5d/Aluminium-4.jpg",
    "description": "Aluminium (aluminum in American and Canadian English) is a chemical element with the symbol Al and atomic number 13. It is a silvery-white, soft, non-magnetic and ductile metal in the boron group. By mass, aluminium makes up about 8% of the Earth's crust, where it is the third most abundant element (after oxygen and silicon) and also the most abundant metal. Occurrence of aluminium decreases in the Earth's mantle below, however. The chief ore of aluminium is bauxite. Aluminium metal is highly reactive, such that native specimens are rare and limited to extreme reducing environments. Instead, it is found combined in over 270 different minerals",

    "element": "Aluminium",
    "short": "Al",
    "element_year": "1825",
    "element_discovered_name": "Hans Christian Ørsted",
    "element_group": "Post-transition Metal",
    "element_appearance": "Silver Grey Metallic",
    "element_electrons": "13",
    "element_protons": "13",
    "element_neutron_common": "14",

    "electrical_type": "Conductor",
    "resistivity": "2.6",
    "resistivity_mult": "0.00000001",
    "magnetic_type": "Paramagnetic",
    "superconducting_point": "1.175",

    "element_atomic_number": "13",
    "element_atomicmass": "26.9815 (u)",
    "element_density": "2.70 (g/cm^3)",
    "element_electronegativty": "1.61",
    "element_block": "p - block",
    "element_shells_electrons": "K2 L8 M3 N0 O0 P0 Q0 R0",
    "element_model": "https://upload.wikimedia.org/wikipedia/commons/thumb/4/4d/Electron_shell_013_Aluminium_-_no_label.svg/1280px-Electron_shell_013_Aluminium_-_no_label.svg.png",

    "element_boiling_kelvin": "2743 (K)",
    "element_boiling_celsius": "2470 (°C)",
    "element_boiling_fahrenheit": "4478 (°F)",
    "element_melting_kelvin": "933.47 (K)",
    "element_melting_celsius": "660.32 (°C)",
    "element_melting_fahrenheit": "1220.58 (°F)",

    "element_electron_config": "3s^2 3p^1",
    "element_ion_charge": "Al^3+",
    "element_ionization_energy": "5.98577 (eV)",
    "element_atomic_radius_e": "125 (pm)",
    "element_atomic_radius": "118 (pm)",
    "element_covalent_radius": "184 (pm)",
    "element_van_der_waals": "118 (pm)",

    "element_phase": "Solid",
    "element_fusion_heat": "10.789 (kJ/mol)",
    "element_specific_heat_capacity": "0.897 J/(g·K)",
    "element_vaporization_heat": "294 (kJ/mol)",

    "oxidation_state_neg": "1 2",
    "oxidation_state_pos": "1 2 3",

    "iso_1": "Al-25",
    "iso_mass_1": "24.99042831",
    "iso_half_1": "7.183 (s)",
    "iso_Z_1": "13",
    "iso_N_1": "12",
    "iso_A_1": "25",

    "iso_2": "Al-26",
    "iso_mass_2": "25.98689186",
    "iso_half_2": "7.17(24)×10^5 (Years)",
    "iso_Z_2": "13",
    "iso_N_2": "13",
    "iso_A_2": "26",

    "iso_3": "Al-27",
    "iso_mass_3": "26.98153841",
    "iso_half_3": "Stable",
    "iso_Z_3": "13",
    "iso_N_3": "14",
    "iso_A_3": "27",

    "iso_4": "Al-28",
    "iso_mass_4": "27.98191009",
    "iso_half_4": "2.245 (min)",
    "iso_Z_4": "13",
    "iso_N_4": "15",
    "iso_A_4": "28",

    "iso_5": "Al-29",
    "iso_mass_5": "28.9804532",
    "iso_half_5": "6.56 (min)",
    "iso_Z_5": "13",
    "iso_N_5": "16",
    "iso_A_5": "29",

    "iso_6": "Al-30",
    "iso_mass_6": "29.982968",
    "iso_half_6": "3.62(s)",
    "iso_Z_6": "13",
    "iso_N_6": "17",
    "iso_A_6": "30"
  }
]