[
  {
    "wikilink": "https://en.wikipedia.org/wiki/Argon",
    "link": "https://upload.wikimedia.org/wikipedia/commons/thumb/8/87/Argon_discharge_tube.jpg/1920px-Argon_discharge_tube.jpg",
    "description": "Argon is a chemical element with the symbol Ar and atomic number 18. It is in group 18 of the periodic table and is a noble gas. Argon is the third-most abundant gas in the Earth's atmosphere, at 0.934% (9340 ppmv). It is more than twice as abundant as water vapor (which averages about 4000 ppmv, but varies greatly), 23 times as abundant as carbon dioxide (400 ppmv), and more than 500 times as abundant as neon (18 ppmv). Argon is the most abundant noble gas in Earth's crust, comprising 0.00015% of the crust.",

    "element": "Argon",
    "short": "Ar",
    "element_year": "1894",
    "element_discovered_name": "William Ramsay",
    "element_group": "Noblegases",
    "element_appearance": "Colorless Gas",
    "element_electrons": "18",
    "element_protons": "18",
    "element_neutron_common": "22",

    "radioactive": "No",
    "neutron_cross_sectional": "0.675 (b)",

    "electrical_type": "---",
    "resistivity": "---",
    "resistivity_mult": "---",
    "magnetic_type": "Diamagnetic",
    "superconducting_point": "---",

    "element_atomic_number": "18",
    "element_atomicmass": "39.95 (u)",
    "element_density": "0.001784 (g/cm^3)",
    "element_electronegativty": "---",
    "element_block": "p - block",
    "element_shells_electrons": "K2 L8 M8 N0 O0 P0 Q0 R0",
    "element_model": "https://upload.wikimedia.org/wikipedia/commons/thumb/5/5c/Electron_shell_018_Argon_-_no_label.svg/1280px-Electron_shell_018_Argon_-_no_label.svg.png",

    "element_boiling_kelvin": "87.302 (K)",
    "element_boiling_celsius": "−185.848 (°C)",
    "element_boiling_fahrenheit": "−302.526 (°F)",
    "element_melting_kelvin": "83.81 (K)",
    "element_melting_celsius": "−189.34 (°C)",
    "element_melting_fahrenheit": "−308.81 (°F)",

    "element_electron_config": "3s^2 3p^6",
    "element_ion_charge": "---",
    "element_ionization_energy1": "15.75962 (eV)",
    "element_ionization_energy2": "27.62967 (eV)",
    "element_ionization_energy3": "40.74 (eV)",
    "element_ionization_energy4": "59.81 (eV)",
    "element_ionization_energy5": "75.02 (eV)",
    "element_ionization_energy6": "91.009 (eV)",
    "element_ionization_energy7": "124.323 (eV)",
    "element_ionization_energy8": "143.460 (eV)",
    "element_ionization_energy9": "422.45 (eV)",
    "element_ionization_energy10": "478.69 (eV)",
    "element_ionization_energy11": "538.96 (eV)",
    "element_ionization_energy12": "618.26 (eV)",
    "element_ionization_energy13": "686.10 (eV)",
    "element_ionization_energy14": "755.74 (eV)",
    "element_ionization_energy15": "854.77 (eV)",
    "element_ionization_energy16": "918.03 (eV)",
    "element_ionization_energy17": "4120.8857 (eV)",
    "element_ionization_energy18": "4426.2296 (eV)",
    "element_atomic_radius_e": "71 (pm)",
    "element_atomic_radius": "71 (pm)",
    "element_covalent_radius": "97 (pm)",
    "element_van_der_waals": "188 (pm)",

    "element_phase": "Gas",
    "element_fusion_heat": "1.18 (kJ/mol)",
    "element_specific_heat_capacity": "0.520 J/(g·K)",
    "element_vaporization_heat": "6.43 (kJ/mol)",

    "oxidation_state_neg": "0",
    "oxidation_state_pos": "",

    "iso_7": "Ar-35",
    "iso_mass_7": "34.9752577",
    "iso_half_7": "1.7756 (s)",
    "iso_Z_7": "18",
    "iso_N_7": "17",
    "iso_A_7": "35",

    "iso_8": "Ar-36",
    "iso_mass_8": "35.967545105",
    "iso_half_8": "Observationally Stable",
    "iso_Z_8": "18",
    "iso_N_8": "18",
    "iso_A_8": "36",

    "iso_9": "Ar-37",
    "iso_mass_9": "36.96677631",
    "iso_half_9": "35.011 (Days)",
    "iso_Z_9": "18",
    "iso_N_9": "29",
    "iso_A_9": "37",

    "iso_10": "Ar-38",
    "iso_mass_10": "37.96273210",
    "iso_half_10": "Stable",
    "iso_Z_10": "18",
    "iso_N_10": "20",
    "iso_A_10": "38",

    "iso_11": "Ar-39",
    "iso_mass_11": "38.964313",
    "iso_half_11": "269 (Years)",
    "iso_Z_11": "18",
    "iso_N_11": "21",
    "iso_A_11": "39",

    "iso_12": "Ar-40",
    "iso_mass_12": "39.9623831238",
    "iso_half_12": "Stable",
    "iso_Z_12": "18",
    "iso_N_12": "22",
    "iso_A_12": "40"
  }
]