[
  {
    "wikilink": "https://en.wikipedia.org/wiki/Berkelium",
    "link": "https://upload.wikimedia.org/wikipedia/commons/b/b6/Berkelium_metal.jpg",

    "element": "Berkelium",
    "element_year": "Lawrence Berkeley National Laboratory",
    "element_discovered_name": "1949",
    "element_group": "Actinide",
    "element_appearance": "Silvery",
    "element_electrons": "97",
    "element_protons": "97",
    "element_neutron_common": "150",

    "element_atomic_number": "97",
    "element_atomicmass": "247 (u)",
    "element_density": "Beta: 13.25 (g/cm^3)",
    "element_electronegativty": "1.3",
    "element_block": "f - block",
    "element_shells_electrons": "K2 L8 M18 N32 O27 P8 Q2 R0",
    "element_model": "https://upload.wikimedia.org/wikipedia/commons/thumb/e/e1/Electron_shell_097_Berkelium_-_no_label.svg/800px-Electron_shell_097_Berkelium_-_no_label.svg.png",

    "element_boiling_kelvin": "Beta: 2900 (K)",
    "element_boiling_celsius": "Beta: 2627 (°C)",
    "element_boiling_fahrenheit": "Beta: 4760 (°F)",
    "element_melting_kelvin": "Beta: 1259 (K)",
    "element_melting_celsius": "Beta: 986 (°C)",
    "element_melting_fahrenheit": "Beta: 1807 (°F)",

    "element_electron_config": "5f^9, 7s^2",
    "element_ion_charge": "Bk^3+, Bk^4+",
    "element_ionization_energy": "6.1979 (eV)",
    "element_atomic_radius_e": "--- (pm)",
    "element_atomic_radius": "--- (pm)",
    "element_covalent_radius": "---",
    "element_van_der_waals": "--- (pm)",

    "element_phase": "Solid",
    "element_fusion_heat": "--- (kJ/mol)",
    "element_specific_heat_capacity": "--- J/(g·K)",
    "element_vaporization_heat": "--- (kJ/mol)",

    "iso_1": "Bk-246",
    "iso_mass_1": "246.06867",
    "iso_half_1": "1.80 (days)",
    "iso_Z_1": "97",
    "iso_N_1": "149",
    "iso_A_1": "246",

    "iso_2": "Bk-247",
    "iso_mass_2": "243.0613891",
    "iso_half_2": "1.38×10^3 (years)",
    "iso_Z_2": "97",
    "iso_N_2": "150",
    "iso_A_2": "247",

    "iso_3": "Bk-248",
    "iso_mass_3": "248.07309",
    "iso_half_3": ">300 (years)",
    "iso_Z_3": "97",
    "iso_N_3": "151",
    "iso_A_3": "248",

    "iso_4": "Bk-249",
    "iso_mass_4": "249.0749867",
    "iso_half_4": "330 (days)",
    "iso_Z_4": "97",
    "iso_N_4": "152",
    "iso_A_4": "249",

    "iso_5": "Bk-250",
    "iso_mass_5": "250.078317",
    "iso_half_5": "3.212 (hours)",
    "iso_Z_5": "97",
    "iso_N_5": "153",
    "iso_A_5": "250"
  }
]