[
  {
    "wikilink": "https://en.wikipedia.org/wiki/Calcium",
    "link": "https://upload.wikimedia.org/wikipedia/commons/9/96/Calcium_unter_Argon_Schutzgasatmosph%C3%A4re.jpg",

    "element": "Calcium",
    "short": "Ca",
    "element_year": "1808",
    "element_discovered_name": "Humphry Davy",
    "element_group": "Alkaline Earth Metals",
    "element_appearance": "Dull Gray, Silver, with a pale yellow tint",
    "element_electrons": "20",
    "element_protons": "20",
    "element_neutron_common": "20",

    "electrical_type": "Conductor",
    "resistivity": "3.4",
    "resistivity_mult": "0.00000001",
    "magnetic_type": "Paramagnetic",
    "superconducting_point": "---",

    "element_atomic_number": "20",
    "element_atomicmass": "40.078 (u)",
    "element_density": "1.54 (g/cm^3)",
    "element_electronegativty": "1.00",
    "element_block": "s - block",
    "element_shells_electrons": "K2 L8 M8 N2 O0 P0 Q0 R0",
    "element_model": "https://upload.wikimedia.org/wikipedia/commons/thumb/5/57/Electron_shell_020_Calcium_-_no_label.svg/1280px-Electron_shell_020_Calcium_-_no_label.svg.png",

    "element_boiling_kelvin": "1757 (K)",
    "element_boiling_celsius": "1484 (°C)",
    "element_boiling_fahrenheit": "2703 (°F)",
    "element_melting_kelvin": "1115 (K)",
    "element_melting_celsius": "842 (°C)",
    "element_melting_fahrenheit": "1548 (°F)",

    "element_electron_config": "4s^2",
    "element_ion_charge": "Ca^2+",
    "element_ionization_energy": "6.11316 (eV)",
    "element_atomic_radius_e": "180 (pm)",
    "element_atomic_radius": "194 (pm)",
    "element_covalent_radius": "174 (pm)",
    "element_van_der_waals": "231 (pm)",

    "element_phase": "Solid",
    "element_fusion_heat": "8.54 (kJ/mol)",
    "element_specific_heat_capacity": "0.647 J/(g·K)",
    "element_vaporization_heat": "154.7 (kJ/mol)",

    "oxidation_state_neg": "",
    "oxidation_state_pos": "1 2",

    "iso_1": "Ca-39",
    "iso_mass_1": "38.9707108",
    "iso_half_1": "860.3 (ms)",
    "iso_Z_1": "20",
    "iso_N_1": "19",
    "iso_A_1": "39",

    "iso_2": "Ca-40",
    "iso_mass_2": "39.962590866",
    "iso_half_2": "Observationally Stable",
    "iso_Z_2": "20",
    "iso_N_2": "20",
    "iso_A_2": "40",

    "iso_3": "Ca-41",
    "iso_mass_3": "40.96227792",
    "iso_half_3": "9.94×10^4 (Years)",
    "iso_Z_3": "20",
    "iso_N_3": "21",
    "iso_A_3": "41",

    "iso_4": "Ca-42",
    "iso_mass_4": "41.95861783",
    "iso_half_4": "Stable",
    "iso_Z_4": "20",
    "iso_N_4": "22",
    "iso_A_4": "42",

    "iso_5": "Ca-43",
    "iso_mass_5": "42.95876643",
    "iso_half_5": "Stable",
    "iso_Z_5": "20",
    "iso_N_5": "23",
    "iso_A_5": "43",

    "iso_6": "Ca-44",
    "iso_mass_6": "43.9554815",
    "iso_half_6": "Stable",
    "iso_Z_6": "20",
    "iso_N_6": "24",
    "iso_A_6": "44",

    "iso_7": "Ca-45",
    "iso_mass_7": "44.9561863",
    "iso_half_7": "162.61 (d)",
    "iso_Z_7": "20",
    "iso_N_7": "25",
    "iso_A_7": "45",

    "iso_8": "Ca-46",
    "iso_mass_8": "45.9536880",
    "iso_half_8": "Observationally Stable",
    "iso_Z_8": "20",
    "iso_N_8": "26",
    "iso_A_8": "46",

    "iso_9": "Ca-47",
    "iso_mass_9": "46.9545414",
    "iso_half_9": "4.536 (d)",
    "iso_Z_9": "20",
    "iso_N_9": "27",
    "iso_A_9": "47",

    "iso_10": "Ca-48",
    "iso_mass_10": "47.95252290",
    "iso_half_10": "---",
    "iso_Z_10": "20",
    "iso_N_10": "28",
    "iso_A_10": "48",

    "iso_11": "Ca-49",
    "iso_mass_11": "48.95562288",
    "iso_half_11": "8.718 (m)",
    "iso_Z_11": "20",
    "iso_N_11": "29",
    "iso_A_11": "49",

    "iso_12": "Ca-50",
    "iso_mass_12": "49.9574992",
    "iso_half_12": "13.9 (s)",
    "iso_Z_12": "20",
    "iso_N_12": "30",
    "iso_A_12": "50"
  }
]