[
  {
    "wikilink": "https://en.wikipedia.org/wiki/Carbon",
    "link": "https://upload.wikimedia.org/wikipedia/commons/f/f0/Graphite-and-diamond-with-scale.jpg",

    "element": "Carbon",
    "element_year": "Deep Antiquity",
    "element_discovered_name": "---",
    "element_group": "Other Nonmetal",
    "element_appearance": "Graphite: Black, Diamond: Clear",
    "element_electrons": "6",
    "element_protons": "6",
    "element_neutron_common": "6",

    "element_atomic_number": "6",
    "element_atomicmass": "12.011 (u)",
    "element_density": "2.2 (g/cm^3)",
    "element_electronegativty": "2.55",
    "element_block": "p - block",
    "element_shells_electrons": "K2 L4 M0 N0 O0 P0 Q0 R0",
    "element_model": "https://upload.wikimedia.org/wikipedia/commons/thumb/9/9f/Electron_shell_006_Carbon_%28polyatomic_nonmetal%29_-_no_label.svg/1280px-Electron_shell_006_Carbon_%28polyatomic_nonmetal%29_-_no_label.svg.png",

    "element_sublimation_kelvin": "3915 (K)",
    "element_sublimation_celsius": "3642 (°C)",
    "element_sublimation_fahrenheit": "6588 (°F)",

    "element_electron_config": "2s^2 2p^2",
    "element_ion_charge": "---",
    "element_ionization_energy": "11.26030 (eV)",
    "element_atomic_radius_e": "70 (pm)",
    "element_atomic_radius": "67 (pm)",
    "element_covalent_radius": "77 (pm)",
    "element_van_der_waals": "170 (pm)",

    "element_phase": "Solid",
    "element_fusion_heat": "117 (kJ/mol)",
    "element_specific_heat_capacity": "0.709 J/(g·K)",
    "element_vaporization_heat": "715 (kJ/mol)",

    "iso_1": "C-10",
    "iso_mass_1": "10.01685322",
    "iso_half_1": "19.3009 (s)",
    "iso_Z_1": "6",
    "iso_N_1": "4",
    "iso_A_1": "10",

    "iso_2": "C-11",
    "iso_mass_2": "11.01143260",
    "iso_half_2": "20.364 (min)",
    "iso_Z_2": "6",
    "iso_N_2": "5",
    "iso_A_2": "11",

    "iso_3": "C-12",
    "iso_mass_3": "12.00000000",
    "iso_half_3": "Stable",
    "iso_Z_3": "6",
    "iso_N_3": "6",
    "iso_A_3": "12",

    "iso_4": "C-13",
    "iso_mass_4": "13.00335483521",
    "iso_half_4": "Stable",
    "iso_Z_4": "6",
    "iso_N_4": "7",
    "iso_A_4": "13",

    "iso_5": "C-14",
    "iso_mass_5": "14.003241988",
    "iso_half_5": "5730 (Years)",
    "iso_Z_5": "6",
    "iso_N_5": "8",
    "iso_A_5": "14",

    "iso_6": "C-15",
    "iso_mass_6": "15.0105993",
    "iso_half_6": "2.449 (s)",
    "iso_Z_6": "6",
    "iso_N_6": "9",
    "iso_A_6": "15"
  }
]