[
  {
    "wikilink": "https://en.wikipedia.org/wiki/Copper",
    "link": "https://upload.wikimedia.org/wikipedia/commons/thumb/f/f0/NatCopper.jpg/1280px-NatCopper.jpg",
    "description": "Copper is a chemical element with the symbol Cu (from Latin: cuprum) and atomic number 29. It is a soft, malleable, and ductile metal with very high thermal and electrical conductivity. A freshly exposed surface of pure copper has a pinkish-orange color. Copper is used as a conductor of heat and electricity, as a building material, and as a constituent of various metal alloys, such as sterling silver used in jewelry, cupronickel used to make marine hardware and coins, and constantan used in strain gauges and thermocouples for temperature measurement.",

    "element": "Copper",
    "short": "Cu",
    "element_year": "Deep Antique",
    "element_discovered_name": "---",
    "element_group": "Transition Metals",
    "element_appearance": "Red-, orange metallic luster",
    "element_electrons": "29",
    "element_protons": "29",
    "element_neutron_common": "34",

    "radioactive": "No",
    "neutron_cross_sectional": "3.78 (b)",

    "electrical_type": "Conductor",
    "resistivity": "1.7",
    "resistivity_mult": "0.00000001",
    "magnetic_type": "Diamagnetic",
    "superconducting_point": "---",

    "element_atomic_number": "29",
    "element_atomicmass": "63.546 (u)",
    "element_density": "8.96 (g/cm^3)",
    "element_electronegativty": "1.90",
    "element_block": "d - block",
    "element_shells_electrons": "K2 L8 18 N1 O0 P0 Q0 R0",
    "element_model": "https://upload.wikimedia.org/wikipedia/commons/thumb/f/f7/Electron_shell_029_Copper_-_no_label.svg/1024px-Electron_shell_029_Copper_-_no_label.svg.png",

    "element_boiling_kelvin": "2835 (K)",
    "element_boiling_celsius": "2562 (°C)",
    "element_boiling_fahrenheit": "4643 (°F)",
    "element_melting_kelvin": "1357.77 (K)",
    "element_melting_celsius": "1084.62 (°C)",
    "element_melting_fahrenheit": "1984.32  (°F)",

    "element_electron_config": "3d^10 4s^1",
    "element_ion_charge": "Cu^2+, Cu^+",
    "element_ionization_energy1": "7.72638 (eV)",
    "element_ionization_energy2": "20.29240 (eV)",
    "element_ionization_energy3": "36.841 (eV)",
    "element_ionization_energy4": "57.38 (eV)",
    "element_ionization_energy5": "79.8 (eV)",
    "element_ionization_energy6": "103 (eV)",
    "element_ionization_energy7": "139 (eV)",
    "element_ionization_energy8": "166 (eV)",
    "element_ionization_energy9": "199 (eV)",
    "element_ionization_energy10": "232 (eV)",
    "element_ionization_energy11": "265.3 (eV)",
    "element_ionization_energy12": "369 (eV)",
    "element_ionization_energy13": "401 (eV)",
    "element_ionization_energy14": "435 (eV)",
    "element_ionization_energy15": "484 (eV)",
    "element_ionization_energy16": "520 (eV)",
    "element_ionization_energy17": "557 (eV)",
    "element_ionization_energy18": "633 (eV)",
    "element_ionization_energy19": "670.588 (eV)",
    "element_ionization_energy20": "1697 (eV)",
    "element_ionization_energy21": "1804 (eV)",
    "element_ionization_energy22": "1916 (eV)",
    "element_ionization_energy23": "2060 (eV)",
    "element_ionization_energy24": "2182 (eV)",
    "element_ionization_energy25": "2308 (eV)",
    "element_ionization_energy26": "2478 (eV)",
    "element_ionization_energy27": "2587.5 (eV)",
    "element_ionization_energy28": "11062.38 (eV)",
    "element_ionization_energy29": "11567.617 (eV)",
    "element_atomic_radius_e": "135 (pm)",
    "element_atomic_radius": "145 (pm)",
    "element_covalent_radius": "139 (pm)",
    "element_van_der_waals": "138",

    "element_phase": "Solid",
    "element_fusion_heat": "12.93 (kJ/mol)",
    "element_specific_heat_capacity": "0.385 J/(g·K)",
    "element_vaporization_heat": "300.4 (kJ/mol)",

    "oxidation_state_neg": "2 0",
    "oxidation_state_pos": "1 2 3 4",

    "iso_1": "Cu-62",
    "iso_mass_1": "61.932584",
    "iso_half_1": "9.673 (min)",
    "iso_Z_1": "29",
    "iso_N_1": "33",
    "iso_A_1": "62",

    "iso_2": "Cu-63",
    "iso_mass_2": "62.9295975",
    "iso_half_2": "Stable",
    "iso_Z_2": "29",
    "iso_N_2": "34",
    "iso_A_2": "63",

    "iso_3": "Cu-64",
    "iso_mass_3": "63.9297642",
    "iso_half_3": "12.700 (hours)",
    "iso_Z_3": "29",
    "iso_N_3": "35",
    "iso_A_3": "64",

    "iso_4": "Cu-65",
    "iso_mass_4": "64.9277895",
    "iso_half_4": "Stable",
    "iso_Z_4": "29",
    "iso_N_4": "36",
    "iso_A_4": "65",

    "iso_5": "Cu-66",
    "iso_mass_5": "65.9288688",
    "iso_half_5": "5.120 (min)",
    "iso_Z_5": "29",
    "iso_N_5": "37",
    "iso_A_5": "66"
  }
]