[
  {
    "wikilink": "https://en.wikipedia.org/wiki/Helium",
    "link": "https://upload.wikimedia.org/wikipedia/commons/thumb/8/82/Helium_discharge_tube.jpg/1920px-Helium_discharge_tube.jpg",

    "element": "Helium",
    "short": "He",
    "element_year": "1868",
    "element_discovered_name": "Pierre Janssen",
    "element_group": "Noble Gases",
    "element_appearance": "Colorless Gas",
    "element_electrons": "2",
    "element_protons": "2",
    "element_neutron_common": "2",

    "electrical_type": "---",
    "resistivity": "---",
    "resistivity_mult": "---",
    "magnetic_type": "Diamagnetic",
    "superconducting_point": "---",

    "element_atomic_number": "2",
    "element_atomicmass": "4.00260 (u)",
    "element_density": "0.00017846 (g/cm^3)",
    "element_electronegativty": "---",
    "element_block": "s - block",
    "element_shells_electrons": "K2 L0 M0 N0 O0 P0 Q0 R0",
    "element_model": "https://upload.wikimedia.org/wikipedia/commons/thumb/8/84/Electron_shell_002_Helium_-_no_label.svg/1024px-Electron_shell_002_Helium_-_no_label.svg.png",

    "element_boiling_kelvin": "4.222 (K)",
    "element_boiling_celsius": "-272.20 (°C)",
    "element_boiling_fahrenheit": "-457.96 (°F)",
    "element_melting_kelvin": "0.95 (K)",
    "element_melting_celsius": "-268.928 (°C)",
    "element_melting_fahrenheit": "-452.070 (°F)",

    "element_electron_config": "1s^2",
    "element_ion_charge": "---",
    "element_ionization_energy": "24.58741 (eV)",
    "element_atomic_radius_e": "120 (pm)",
    "element_atomic_radius": "31 (pm)",
    "element_covalent_radius": "32 (pm)",
    "element_van_der_waals": "140 (pm)",

    "element_phase": "Gas",
    "element_fusion_heat": "0.02 (kJ/mol)",
    "element_specific_heat_capacity": "5.193 J/(g·K)",
    "element_vaporization_heat": "0.083 (kJ/mol)",

    "oxidation_state_neg": "",
    "oxidation_state_pos": "",

    "iso_1": "He-3",
    "iso_mass_1": "3.01602932265",
    "iso_half_1": "Stable",
    "iso_Z_1": "2",
    "iso_N_1": "1",
    "iso_A_1": "3",

    "iso_2": "He-4",
    "iso_mass_2": "4.00260325413",
    "iso_half_2": "Stable",
    "iso_Z_2": "2",
    "iso_N_2": "2",
    "iso_A_2": "4",

    "iso_3": "He-5",
    "iso_mass_3": "5.012057",
    "iso_half_3": "700×10−24 ^(s)",
    "iso_Z_3": "2",
    "iso_N_3": "3",
    "iso_A_3": "5",

    "iso_4": "He-6",
    "iso_mass_4": "6.01888589",
    "iso_half_4": "0.80692 (s)",
    "iso_Z_4": "2",
    "iso_N_4": "4",
    "iso_A_4": "6"
  }
]