[
  {
    "wikilink": "https://en.wikipedia.org/wiki/Hydrogen",



    "element": "Hydrogen",
    "element_year": "1766",
    "element_discovered_name": "Henry Cavendish",
    "element_group": "Other Nonmetals",
    "element_appearance": "Colorless Gas",
    "element_electrons": "1",
    "element_protons": "1",
    "element_neutron_common": "0",



    "element_atomic_number": "1",
    "element_atomicmass": "1.00784 (u)",
    "element_density": "0.0000899 (g/cm^3)",
    "element_electronegativty": "2.2",
    "element_block": "s - block",
    "element_shells_electrons": "K1 L0 M0 N0 O0 P0 Q0 R0",
    "element_model": "https://upload.wikimedia.org/wikipedia/commons/thumb/e/ee/Electron_shell_001_Hydrogen_-_no_label.svg/800px-Electron_shell_001_Hydrogen_-_no_label.svg.png",



    "element_boiling_kelvin": "20.271 (K)",
    "element_boiling_celsius": "-252.879 (°C)",
    "element_boiling_fahrenheit": "-423.182 (°F)",
    "element_melting_kelvin": "13.99 (K)",
    "element_melting_celsius": "-259.16 (°C)",
    "element_melting_fahrenheit": "-434.49 (°F)",



    "element_electron_config": "1s^1",
    "element_ion_charge": "H^+, H^-",
    "element_ionization_energy": "13.59844 (eV)",
    "element_atomic_radius": "53 (pm)",
    "element_covalent_radius": "38 (pm)",
    "element_van_der_waals": "120 (pm)",



    "element_phase": "Gas",
    "element_fusion_heat": "0.12 (H2) (kJ/mol)",
    "element_specific_heat_capacity": "14.304 J/(g·K)",
    "element_vaporization_heat": "0.90 (H2) (kJ/mol)",


    "iso_1": "H-1",
    "iso_mass_1": "1.00782503224",
    "iso_half_1": "Stable",
    "iso_Z_1": "1",
    "iso_N_1": "0",
    "iso_A_1": "1",

    "iso_2": "H-2",
    "iso_mass_2": "2.01410177811",
    "iso_half_2": "Stable",
    "iso_Z_2": "1",
    "iso_N_2": "1",
    "iso_A_2": "2",

    "iso_3": "H-3",
    "iso_mass_3": "3.01604928199",
    "iso_half_3": "12.32 Years",
    "iso_Z_3": "1",
    "iso_N_3": "2",
    "iso_A_3": "3",

    "iso_4": "H-4",
    "iso_mass_4": "4.02677",
    "iso_half_4": "1.39×10^−22 (s)",
    "iso_Z_4": "1",
    "iso_N_4": "3",
    "iso_A_4": "4",






    "element_crystal_structure": "Hexagonal",
    "element_electrical_conductivity": "N/A",
    "element_magnetic_type": "Diamagnetic",
    "element_volume_magnetic_susceptibility": "-2.23*10^9",
    "spectral_img": "https://upload.wikimedia.org/wikipedia/commons/thumb/8/87/Hydrogen_spectrum_visible.png/1920px-Hydrogen_spectrum_visible.png",
    "link": "https://upload.wikimedia.org/wikipedia/commons/thumb/8/83/Hydrogen_discharge_tube.jpg/1920px-Hydrogen_discharge_tube.jpg"
  }
]