[
  {
    "wikilink": "https://en.wikipedia.org/wiki/Iron",
    "link": "https://upload.wikimedia.org/wikipedia/commons/thumb/a/ad/Iron_electrolytic_and_1cm3_cube.jpg/1280px-Iron_electrolytic_and_1cm3_cube.jpg ",

    "element": "Iron",
    "short": "Fe",
    "element_year": "Deep Antique",
    "element_discovered_name": "---",
    "element_group": "Transition Metals",
    "element_appearance": "Lostrus Metallic",
    "element_electrons": "26",
    "element_protons": "26",
    "element_neutron_common": "30",

    "element_atomic_number": "26",
    "element_atomicmass": "55.845 (u)",
    "element_density": "7.87 (g/cm^3)",
    "element_electronegativty": "1.83",
    "element_block": "d - block",
    "element_shells_electrons": "K2 L8 M14 N2 O0 P0 Q0 R0",
    "element_model": "https://upload.wikimedia.org/wikipedia/commons/thumb/c/c6/Electron_shell_026_Iron_-_no_label.svg/800px-Electron_shell_026_Iron_-_no_label.svg.png",

    "element_boiling_kelvin": "3134 (K)",
    "element_boiling_celsius": "2862 (°C)",
    "element_boiling_fahrenheit": "5182 (°F)",
    "element_melting_kelvin": "1811 (K)",
    "element_melting_celsius": "1538 (°C)",
    "element_melting_fahrenheit": "2800 (°F)",

    "element_electron_config": "3d^6 4s^2",
    "element_ion_charge": "Fe^2+, Fe^3+",
    "element_ionization_energy": "7.9024 (eV)",
    "element_atomic_radius_e": "140 (pm)",
    "element_atomic_radius": "156 (pm)",
    "element_covalent_radius": "125 (pm)",
    "element_van_der_waals": "--- (pm)",

    "element_phase": "Solid",
    "element_fusion_heat": "13.81 (kJ/mol)",
    "element_specific_heat_capacity": "0.449 J/(g·K)",
    "element_vaporization_heat": "340 (kJ/mol)",

    "oxidation_state_neg": "4 2 1 0",
    "oxidation_state_pos": "1 2 3 4 5 6 7",

    "iso_1": "Fe-53",
    "iso_mass_1": "52.9453079",
    "iso_half_1": "8.51 (min)",
    "iso_Z_1": "26",
    "iso_N_1": "27",
    "iso_A_1": "53",

    "iso_2": "Fe-54",
    "iso_mass_2": "53.9396090",
    "iso_half_2": "Observationally Stable",
    "iso_Z_2": "26",
    "iso_N_2": "28",
    "iso_A_2": "54",

    "iso_3": "Fe-55",
    "iso_mass_3": "54.9382934",
    "iso_half_3": "2.737 (years)",
    "iso_Z_3": "26",
    "iso_N_3": "29",
    "iso_A_3": "55",

    "iso_4": "Fe-56",
    "iso_mass_4": "55.9349363",
    "iso_half_4": "Stable",
    "iso_Z_4": "26",
    "iso_N_4": "30",
    "iso_A_4": "56",

    "iso_5": "Fe-57",
    "iso_mass_5": "56.9353928",
    "iso_half_5": "Stable",
    "iso_Z_5": "26",
    "iso_N_5": "31",
    "iso_A_5": "57",

    "iso_6": "Fe-58",
    "iso_mass_6": "57.9332744",
    "iso_half_6": "Stable",
    "iso_Z_6": "26",
    "iso_N_6": "32",
    "iso_A_6": "58",

    "iso_7": "Fe-59",
    "iso_mass_7": "58.9348755",
    "iso_half_7": "44.495 (days)",
    "iso_Z_7": "26",
    "iso_N_7": "33",
    "iso_A_7": "59",

    "iso_8": "Fe-60",
    "iso_mass_8": "59.934072",
    "iso_half_8": "2.6×10^6 (years)",
    "iso_Z_8": "26",
    "iso_N_8": "34",
    "iso_A_8": "60",

    "iso_9": "Fe-61",
    "iso_mass_9": "60.936745",
    "iso_half_9": "5.98 (min)",
    "iso_Z_9": "26",
    "iso_N_9": "35",
    "iso_A_9": "61"
  }
]