[
  {
    "wikilink": "https://en.wikipedia.org/wiki/Krypton",
    "link": "https://upload.wikimedia.org/wikipedia/commons/thumb/5/50/Krypton_discharge_tube.jpg/1920px-Krypton_discharge_tube.jpg",
    "description": "Krypton (from Ancient Greek: κρυπτός, romanized: kryptos \"the hidden one\") is a chemical element with the symbol Kr and atomic number 36. It is a colorless, odorless, tasteless noble gas that occurs in trace amounts in the atmosphere and is often used with other rare gases in fluorescent lamps. With rare exceptions, krypton is chemically inert.",

    "element": "Krypton",
    "short": "Kr",
    "element_year": "1898",
    "element_discovered_name": "William Ramsay",
    "element_group": "Noble Gases",
    "element_appearance": "Colorless Gas",
    "element_electrons": "36",
    "element_protons": "36",
    "element_neutron_common": "48",

    "radioactive": "No",
    "neutron_cross_sectional": "25 (b)",

    "electrical_type": "---",
    "resistivity": "---",
    "resistivity_mult": "---",
    "magnetic_type": "Diamagnetic",
    "superconducting_point": "---",

    "element_atomic_number": "36",
    "element_atomicmass": "83.798 (u)",
    "element_density": "0.0003749 (g/cm^3)",
    "element_electronegativty": "3.00",
    "element_block": "p - block",
    "element_shells_electrons": "K2 L8 18 N8 O0 P0 Q0 R0",
    "element_model": "https://upload.wikimedia.org/wikipedia/commons/thumb/1/1b/Electron_shell_036_Krypton_-_no_label.svg/1280px-Electron_shell_036_Krypton_-_no_label.svg.png",

    "element_boiling_kelvin": "119.93 (K)",
    "element_boiling_celsius": "-153.415 (°C)",
    "element_boiling_fahrenheit": "−244.147 (°F)",
    "element_melting_kelvin": "115.78 (K)",
    "element_melting_celsius": "−157.37 (°C)",
    "element_melting_fahrenheit": "−157.37 (°F)",

    "element_electron_config": "3d^10 4s^2 4p^6",
    "element_ion_charge": "---",
    "element_ionization_energy1": "13.99961 (eV)",
    "element_ionization_energy2": "24.35985 (eV)",
    "element_ionization_energy3": "36.950 (eV)",
    "element_ionization_energy4": "52.5 (eV)",
    "element_ionization_energy5": "64.7 (eV)",
    "element_ionization_energy6": "78.5 (eV)",
    "element_ionization_energy7": "111.0 (eV)",
    "element_ionization_energy8": "125.802 (eV)",
    "element_ionization_energy9": "230.85 (eV)",
    "element_ionization_energy10": "268.2 (eV)",
    "element_ionization_energy11": "308 (eV)",
    "element_ionization_energy12": "350 (eV)",
    "element_ionization_energy13": "391 (eV)",
    "element_ionization_energy14": "447 (eV)",
    "element_ionization_energy15": "492 (eV)",
    "element_ionization_energy16": "541 (eV)",
    "element_ionization_energy17": "592 (eV)",
    "element_ionization_energy18": "641 (eV)",
    "element_ionization_energy19": "786 (eV)",
    "element_ionization_energy20": "833 (eV)",
    "element_ionization_energy21": "884 (eV)",
    "element_ionization_energy22": "937 (eV)",
    "element_ionization_energy23": "998 (eV)",
    "element_ionization_energy24": "1051 (eV)",
    "element_ionization_energy25": "1151 (eV)",
    "element_ionization_energy26": "1205.3 (eV)",
    "element_ionization_energy27": "2928 (eV)",
    "element_ionization_energy28": "3070 (eV)",
    "element_ionization_energy29": "3227 (eV)",
    "element_ionization_energy30": "3381 (eV)",
    "element_atomic_radius_e": "--- (pm)",
    "element_atomic_radius": "88 (pm)",
    "element_covalent_radius": "110 (pm)",
    "element_van_der_waals": "202 (pm)",

    "element_phase": "Gas",
    "element_fusion_heat": "1.64 (kJ/mol)",
    "element_specific_heat_capacity": "0.248 J/(g·K)",
    "element_vaporization_heat": "9.08 (kJ/mol)",

    "oxidation_state_neg": "0",
    "oxidation_state_pos": "1 2",

    "iso_1": "Kr-78",
    "iso_mass_1": "77.9203648",
    "iso_half_1": "---",
    "iso_Z_1": "36",
    "iso_N_1": "42",
    "iso_A_1": "78",

    "iso_2": "Kr-79",
    "iso_mass_2": "78.920082",
    "iso_half_2": "35.04 (hours)",
    "iso_Z_2": "36",
    "iso_N_2": "43",
    "iso_A_2": "79",

    "iso_3": "Kr-80",
    "iso_mass_3": "79.9163790",
    "iso_half_3": "Stable",
    "iso_Z_3": "36",
    "iso_N_3": "44",
    "iso_A_3": "80",

    "iso_4": "Kr-81",
    "iso_mass_4": "80.9165920",
    "iso_half_4": "2.29×10^5 (years)",
    "iso_Z_4": "36",
    "iso_N_4": "45",
    "iso_A_4": "81",

    "iso_5": "Kr-82",
    "iso_mass_5": "81.9134836",
    "iso_half_5": "Stable",
    "iso_Z_5": "36",
    "iso_N_5": "46",
    "iso_A_5": "82",

    "iso_6": "Kr-83",
    "iso_mass_6": "82.914136",
    "iso_half_6": "Stable",
    "iso_Z_6": "36",
    "iso_N_6": "47",
    "iso_A_6": "83",

    "iso_7": "Kr-84",
    "iso_mass_7": "83.911507",
    "iso_half_7": "Stable",
    "iso_Z_7": "36",
    "iso_N_7": "48",
    "iso_A_7": "84",

    "iso_8": "Kr-85",
    "iso_mass_8": "84.9125273",
    "iso_half_8": "10.776 (years)",
    "iso_Z_8": "36",
    "iso_N_8": "49",
    "iso_A_8": "85",

    "iso_9": "Kr-86",
    "iso_mass_9": "85.91061073",
    "iso_half_9": "Observationally Stable",
    "iso_Z_9": "36",
    "iso_N_9": "50",
    "iso_A_9": "86",

    "iso_10": "Kr-87",
    "iso_mass_10": "86.91335486",
    "iso_half_10": "76.3 (min)",
    "iso_Z_10": "36",
    "iso_N_10": "51",
    "iso_A_10": "87",

    "iso_11": "Kr-88",
    "iso_mass_11": "87.914447",
    "iso_half_11": "2.84 (hours)",
    "iso_Z_11": "36",
    "iso_N_11": "52",
    "iso_A_11": "88",

    "iso_12": "Kr-89",
    "iso_mass_12": "88.91763",
    "iso_half_12": "3.15 (min)",
    "iso_Z_12": "36",
    "iso_N_12": "53",
    "iso_A_12": "89",

    "iso_13": "Kr-90",
    "iso_mass_13": "89.919517",
    "iso_half_13": "32.32 (s)",
    "iso_Z_13": "36",
    "iso_N_13": "54",
    "iso_A_13": "90",

    "iso_14": "Kr-91",
    "iso_mass_14": "90.92345",
    "iso_half_14": "8.57 (s)",
    "iso_Z_14": "36",
    "iso_N_14": "55",
    "iso_A_14": "91",

    "iso_15": "Kr-92",
    "iso_mass_15": "91.926156",
    "iso_half_15": "1.840 (s)",
    "iso_Z_15": "36",
    "iso_N_15": "56",
    "iso_A_15": "92"
  }
]