[
  {
    "wikilink": "https://en.wikipedia.org/wiki/Lawrencium",
    "link": "empty",

    "element": "Lawrencium",
    "element_year": "Lawrence Berkeley National Laboratory",
    "element_discovered_name": "1961-1971",
    "element_group": "Actinide",
    "element_appearance": "Silvery",
    "element_electrons": "103",
    "element_protons": "103",
    "element_neutron_common": "163",

    "element_atomic_number": "103",
    "element_atomicmass": "266 (u)",
    "element_density": "9.84 (g/cm^3)",
    "element_electronegativty": "1.3",
    "element_block": "f - block",
    "element_shells_electrons": "K2 L8 M18 N32 O32 P8 Q3 R0",
    "element_model": "https://upload.wikimedia.org/wikipedia/commons/thumb/a/aa/Electron_shell_103_Lawrencium_-_no_label.svg/800px-Electron_shell_103_Lawrencium_-_no_label.svg.png",

    "element_boiling_kelvin": "--- (K)",
    "element_boiling_celsius": "--- (°C)",
    "element_boiling_fahrenheit": "--- (°F)",
    "element_melting_kelvin": "1900 (K)",
    "element_melting_celsius": "1627 (°C)",
    "element_melting_fahrenheit": "2961 (°F)",

    "element_electron_config": "5f^14, 7s^2, 7p^1",
    "element_ion_charge": "Lr^3+",
    "element_ionization_energy": "4.9 (eV)",
    "element_atomic_radius": "--- (pm)",
    "element_covalent_radius": "---",
    "element_van_der_waals": "--- (pm)",

    "element_phase": "Solid",
    "element_fusion_heat": "--- (kJ/mol)",
    "element_specific_heat_capacity": "--- J/(g·K)",
    "element_vaporization_heat": "--- (kJ/mol)",

    "iso_1": "Lr-261",
    "iso_mass_1": "261.10688",
    "iso_half_1": "44 (min)",
    "iso_Z_1": "103",
    "iso_N_1": "158",
    "iso_A_1": "261",

    "iso_2": "Lr-262",
    "iso_mass_2": "262.10961",
    "iso_half_2": "216 (min)",
    "iso_Z_2": "103",
    "iso_N_2": "159",
    "iso_A_2": "262"
  }
]