[
  {
    "wikilink": "https://en.wikipedia.org/wiki/Lithium",
    "link": "https://www.power-technology.com/wp-content/uploads/sites/7/2019/11/lithium.png",

    "element": "Lithium",
    "element_year": "1817",
    "element_discovered_name": "Johan August Arfwedson",
    "element_group": "Alkali Metals",
    "element_appearance": "Silvery White",
    "element_electrons": "3",
    "element_protons": "3",
    "element_neutron_common": "4",

    "element_atomic_number": "3",
    "element_atomicmass": "6.94 (u)",
    "element_density": "0.534 (g/cm^3)",
    "element_electronegativty": "0.98",
    "element_block": "s - block",
    "element_shells_electrons": "K2 L1 M0 N0 O0 P0 Q0 R0",
    "element_model": "https://upload.wikimedia.org/wikipedia/commons/thumb/a/ae/Electron_shell_003_Lithium_-_no_label.svg/1280px-Electron_shell_003_Lithium_-_no_label.svg.png",

    "element_boiling_kelvin": "1603 (K)",
    "element_boiling_celsius": "1330 (°C)",
    "element_boiling_fahrenheit": "2426 (°F)",
    "element_melting_kelvin": "453.65 (K)",
    "element_melting_celsius": "180.50 (°C)",
    "element_melting_fahrenheit": "356.90 (°F)",

    "element_electron_config": "2s^1",
    "element_ion_charge": "Li^+",
    "element_ionization_energy": "5.39172 (eV)",
    "element_atomic_radius_e": "145 (pm)",
    "element_atomic_radius": "167 (pm)",
    "element_covalent_radius": "134 (pm)",
    "element_van_der_waals": "182 (pm)",

    "element_phase": "Solid",
    "element_fusion_heat": "3.0 (kJ/mol)",
    "element_specific_heat_capacity": "3.582 J/(g·K)",
    "element_vaporization_heat": "147 (kJ/mol)",

    "iso_1": "Li-5",
    "iso_mass_1": "5.01254",
    "iso_half_1": "*",
    "iso_Z_1": "3",
    "iso_N_1": "2",
    "iso_A_1": "5",

    "iso_2": "Li-6",
    "iso_mass_2": "6.0151228874",
    "iso_half_2": "Stable",
    "iso_Z_2": "3",
    "iso_N_2": "3",
    "iso_A_2": "6",

    "iso_3": "Li-7",
    "iso_mass_3": "7.016003437",
    "iso_half_3": "Stable",
    "iso_Z_3": "3",
    "iso_N_3": "4",
    "iso_A_3": "7",

    "iso_4": "Li-8",
    "iso_mass_4": "8.02248625",
    "iso_half_4": "0.83940 (s)",
    "iso_Z_4": "3",
    "iso_N_4": "5",
    "iso_A_4": "8"
  }
]