[
  {
    "wikilink": "https://en.wikipedia.org/wiki/Neon",
    "link": "https://upload.wikimedia.org/wikipedia/commons/thumb/4/46/Neon_discharge_tube.jpg/1920px-Neon_discharge_tube.jpg",

    "element": "Neon",
    "element_year": "1898",
    "element_discovered_name": "William Ramsay",
    "element_group": "Noble Gases",
    "element_appearance": "Colorless Gas",
    "element_electrons": "10",
    "element_protons": "10",
    "element_neutron_common": "10",

    "element_atomic_number": "10",
    "element_atomicmass": "20.1797 (u)",
    "element_density": "0.0009002 (g/cm^3)",
    "element_electronegativty": "---",
    "element_block": "p - block",
    "element_shells_electrons": "K2 L8 M0 N0 O0 P0 Q0 R0",
    "element_model": "https://upload.wikimedia.org/wikipedia/commons/thumb/3/3e/Electron_shell_010_Neon_-_no_label.svg/1280px-Electron_shell_010_Neon_-_no_label.svg.png",

    "element_boiling_kelvin": "27.104 (K)",
    "element_boiling_celsius": "−246.046 (°C)",
    "element_boiling_fahrenheit": "−410.883 (°F)",
    "element_melting_kelvin": "24.56 (K)",
    "element_melting_celsius": "−248.59 (°C)",
    "element_melting_fahrenheit": "−415.46 (°F)",

    "element_electron_config": "2s^2 2p^6",
    "element_ion_charge": "---",
    "element_ionization_energy": "21.5646 (eV)",
    "element_atomic_radius_e": "160 (pm)",
    "element_atomic_radius": "38 (pm)",
    "element_covalent_radius": "69 (pm)",
    "element_van_der_waals": "154 (pm)",

    "element_phase": "Gas",
    "element_fusion_heat": "0.328 (kJ/mol)",
    "element_specific_heat_capacity": "1.030 J/(g·K)",
    "element_vaporization_heat": "1.71 (kJ/mol)",

    "iso_1": "Ne-19",
    "iso_mass_1": "19.00188090",
    "iso_half_1": "17.274 (s)",
    "iso_Z_1": "10",
    "iso_N_1": "9",
    "iso_A_1": "19",

    "iso_2": "Ne-20",
    "iso_mass_2": "19.9924401762",
    "iso_half_2": "Stable",
    "iso_Z_2": "10",
    "iso_N_2": "10",
    "iso_A_2": "20",

    "iso_3": "Ne-21",
    "iso_mass_3": "20.99384669",
    "iso_half_3": "Stable",
    "iso_Z_3": "10",
    "iso_N_3": "11",
    "iso_A_3": "21",

    "iso_4": "Ne-22",
    "iso_mass_4": "21.991385110",
    "iso_half_4": "Stable",
    "iso_Z_4": "10",
    "iso_N_4": "12",
    "iso_A_4": "22",

    "iso_5": "Ne-23",
    "iso_mass_5": "22.99446690",
    "iso_half_5": "37.140 (s)",
    "iso_Z_5": "10",
    "iso_N_5": "13",
    "iso_A_5": "23",

    "iso_6": "Ne-24",
    "iso_mass_6": "23.9936106",
    "iso_half_6": "3.38 (min)",
    "iso_Z_6": "10",
    "iso_N_6": "14",
    "iso_A_6": "24"
  }
]