[
  {
    "wikilink": "https://en.wikipedia.org/wiki/Nickel",
    "link": "https://upload.wikimedia.org/wikipedia/commons/5/57/Nickel_chunk.jpg",
    "description": "Nickel is a chemical element with the symbol Ni and atomic number 28. It is a silvery-white lustrous metal with a slight golden tinge. Nickel belongs to the transition metals and is hard and ductile. Pure nickel, powdered to maximize the reactive surface area, shows a significant chemical activity, but larger pieces are slow to react with air under standard conditions because an oxide layer forms on the surface and prevents further corrosion (passivation). Even so, pure native nickel is found in Earth's crust only in tiny amounts, usually in ultramafic rocks, and in the interiors of larger nickel–iron meteorites that were not exposed to oxygen when outside Earth's atmosphere.",

    "element": "Nickel",
    "short": "Ni",
    "element_year": "1751",
    "element_discovered_name": "Axel Fredrik Cronstedt",
    "element_group": "Transition Metals",
    "element_appearance": "Lustrous, metallic, and silver with a gold tinge",
    "element_electrons": "28",
    "element_protons": "28",
    "element_neutron_common": "30",

    "electrical_type": "Conductor",
    "resistivity": "7",
    "resistivity_mult": "0.00000001",
    "magnetic_type": "Ferromagnetic",
    "superconducting_point": "---",

    "element_atomic_number": "28",
    "element_atomicmass": "58.6934 (u)",
    "element_density": "8.90 (g/cm^3)",
    "element_electronegativty": "1.91",
    "element_block": "d - block",
    "element_shells_electrons": "K2 L8 M16 N2 O0 P0 Q0 R0",
    "element_model": "https://upload.wikimedia.org/wikipedia/commons/thumb/d/d2/Electron_shell_028_Nickel_-_no_label.svg/800px-Electron_shell_028_Nickel_-_no_label.svg.png",

    "element_boiling_kelvin": "3003 (K)",
    "element_boiling_celsius": "2730 (°C)",
    "element_boiling_fahrenheit": "4946 (°F)",
    "element_melting_kelvin": "1728 (K)",
    "element_melting_celsius": "1455 (°C)",
    "element_melting_fahrenheit": "2651 (°F)",

    "element_electron_config": "3d^8 4s^2",
    "element_ion_charge": "Ni^2+, Ni^3+",
    "element_ionization_energy": "7.6398 (eV)",
    "element_atomic_radius_e": "135 (pm)",
    "element_atomic_radius": "149 (pm)",
    "element_covalent_radius": "121 (pm)",
    "element_van_der_waals": "--- (pm)",

    "element_phase": "Solid",
    "element_fusion_heat": "17.04 (kJ/mol)",
    "element_specific_heat_capacity": "0.444 J/(g·K)",
    "element_vaporization_heat": "379 (kJ/mol)",

    "oxidation_state_neg": "2 1 0",
    "oxidation_state_pos": "1 2 3 4 5",

    "iso_1": "Ni-57",
    "iso_mass_1": "56.9397935",
    "iso_half_1": "35.60 (hours)",
    "iso_Z_1": "28",
    "iso_N_1": "29",
    "iso_A_1": "57",

    "iso_2": "Ni-58",
    "iso_mass_2": "57.9353429",
    "iso_half_2": "Observationally Stable",
    "iso_Z_2": "28",
    "iso_N_2": "30",
    "iso_A_2": "58",

    "iso_3": "Ni-59",
    "iso_mass_3": "58.9343467",
    "iso_half_3": "7.6×10^4 (years)",
    "iso_Z_3": "28",
    "iso_N_3": "31",
    "iso_A_3": "59",

    "iso_4": "Ni-60",
    "iso_mass_4": "59.9307864",
    "iso_half_4": "Stable",
    "iso_Z_4": "28",
    "iso_N_4": "32",
    "iso_A_4": "60",

    "iso_5": "Ni-61",
    "iso_mass_5": "60.9310560",
    "iso_half_5": "Stable",
    "iso_Z_5": "28",
    "iso_N_5": "33",
    "iso_A_5": "61",

    "iso_6": "Ni-62",
    "iso_mass_6": "61.9283451",
    "iso_half_6": "Stable",
    "iso_Z_6": "28",
    "iso_N_6": "34",
    "iso_A_6": "62",

    "iso_7": "Ni-63",
    "iso_mass_7": "62.9296694",
    "iso_half_7": "100.1 (years)",
    "iso_Z_7": "28",
    "iso_N_7": "35",
    "iso_A_7": "63",

    "iso_8": "Ni-64",
    "iso_mass_8": "63.9279660",
    "iso_half_8": "Stable",
    "iso_Z_8": "28",
    "iso_N_8": "36",
    "iso_A_8": "64",

    "iso_9": "Ni-65",
    "iso_mass_9": "64.9300843",
    "iso_half_9": "2.5172 (hours)",
    "iso_Z_9": "28",
    "iso_N_9": "37",
    "iso_A_9": "65"
  }
]