[
  {
"element_code": "AA2eTRf69yV7xEPhmZZ",
    "wikilink": "https://en.wikipedia.org/wiki/Osmium",
    "link": "https://upload.wikimedia.org/wikipedia/commons/thumb/0/0c/Osmium_crystals.jpg/1024px-Osmium_crystals.jpg",
    "description": "Osmium (from Greek ὀσμή osme, \"smell\") is a chemical element with the symbol Os and atomic number 76. It is a hard, brittle, bluish-white transition metal in the platinum group that is found as a trace element in alloys, mostly in platinum ores. Osmium is the densest naturally occurring element, with an experimentally measured (using x-ray crystallography) density of 22.59 g/cm3. Manufacturers use its alloys with platinum, iridium, and other platinum-group metals to make fountain pen nib tipping, electrical contacts, and in other applications that require extreme durability and hardness. The element's abundance in the Earth's crust is among the rarest.",

    "element": "Osmium",
    "short": "Os",
    "element_year": "1803",
    "element_discovered_name": "Smithson Tennant",
    "element_group": "Transition Metals",
    "element_appearance": "Silvery, blue cast",
    "element_electrons": "76",
    "element_protons": "76",
    "element_neutron_common": "116",

    "radioactive": "No",
    "neutron_cross_sectional": "15 (b)",

    "electrical_type": "Conductor",
    "resistivity": "8.1",
    "resistivity_mult": "0.00000001",
    "magnetic_type": "Paramagnetic",
    "superconducting_point": "0.66",

    "element_atomic_number": "76",
    "element_atomicmass": "190.23 (u)",
    "element_density": "22.59 (g/cm^3)",
    "element_electronegativty": "2.2",
    "element_block": "d - block",
    "element_shells_electrons": "K2 L8 M8 N32 O14 P2 Q0 R0",
    "element_model": "https://upload.wikimedia.org/wikipedia/commons/thumb/c/c2/Electron_shell_076_Osmium_-_no_label.svg/800px-Electron_shell_076_Osmium_-_no_label.svg.png",

    "element_boiling_kelvin": "5285 (K)",
    "element_boiling_celsius": "5012 (°C)",
    "element_boiling_fahrenheit": "9054 (°F)",
    "element_melting_kelvin": "3306 (K)",
    "element_melting_celsius": "3033 (°C)",
    "element_melting_fahrenheit": "5491 (°F)",

    "element_electron_config": "4f^14, 5d^6, 6s^2",
    "element_ion_charge": "Os^4+",
    "element_ionization_energy1": "8.4382 (eV)",
    "element_atomic_radius_e": "130 (pm)",
    "element_atomic_radius": "185 (pm)",
    "element_covalent_radius": "128 (pm)",
    "element_van_der_waals": "--- (pm)",

    "element_phase": "Solid",
    "element_fusion_heat": "57.85 (kJ/mol)",
    "element_specific_heat_capacity": "0.130 J/(g·K)",
    "element_vaporization_heat": "678 (kJ/mol)",

    "oxidation_state_neg": "4 2 1 0",
    "oxidation_state_pos": "1 2 3 4 5 6 7 8",

    "mohs_hardness": "7.0",
    "vickers_hardness": "---",
    "brinell_hardness": "3920-4000 (MPa)",

    "speed_of_sound_gas": "---",
    "speed_of_sound_liquid": "---",
    "speed_of_sound_solid": "4940 (m/s) [20°C]",

      "iso_1": "Os-184",
      "iso_mass_1": "183.952491",
      "decay_type_1": "α",
      "iso_half_1": "1.12 × 10^13 y",
      "iso_Z_1": "76",
      "iso_N_1": "108",
      "iso_A_1": "184",

      "iso_2": "Os-185",
      "iso_mass_2": "184.952956",
      "decay_type_2": "ε",
      "iso_half_2": "93 d",
      "iso_Z_2": "76",
      "iso_N_2": "109",
      "iso_A_2": "185",

      "iso_3": "Os-186",
      "iso_mass_3": "185.953838",
      "decay_type_3": "α",
      "iso_half_3": "2.0 × 10^15 y",
      "iso_Z_3": "76",
      "iso_N_3": "110",
      "iso_A_3": "186",

      "iso_4": "Os-187",
      "iso_mass_4": "186.955750",
      "decay_type_4": "stable",
      "iso_half_4": "N/A",
      "iso_Z_4": "76",
      "iso_N_4": "111",
      "iso_A_4": "187",

      "iso_5": "Os-188",
      "iso_mass_5": "187.955838",
      "decay_type_5": "stable",
      "iso_half_5": "N/A",
      "iso_Z_5": "76",
      "iso_N_5": "112",
      "iso_A_5": "188",

      "iso_6": "Os-189",
      "iso_mass_6": "188.958147",
      "decay_type_6": "stable",
      "iso_half_6": "N/A",
      "iso_Z_6": "76",
      "iso_N_6": "113",
      "iso_A_6": "189",

      "iso_7": "Os-190",
      "iso_mass_7": "189.958447",
      "decay_type_7": "stable",
      "iso_half_7": "N/A",
      "iso_Z_7": "76",
      "iso_N_7": "114",
      "iso_A_7": "190",

      "iso_8": "Os-191",
      "iso_mass_8": "190.960929",
      "decay_type_8": "B-",
      "iso_half_8": "15.4 d",
      "iso_Z_8": "76",
      "iso_N_8": "115",
      "iso_A_8": "191",

      "iso_9": "Os-192",
      "iso_mass_9": "191.961480",
      "decay_type_9": "stable",
      "iso_half_9": "N/A",
      "iso_Z_9": "76",
      "iso_N_9": "116",
      "iso_A_9": "192",

      "iso_10": "Os-193",
      "iso_mass_10": "192.964151",
      "decay_type_10": "B-",
      "iso_half_10": "30.11 h",
      "iso_Z_10": "76",
      "iso_N_10": "117",
      "iso_A_10": "193",

      "iso_11": "Os-194",
      "iso_mass_11": "193.965182",
      "decay_type_11": "B-",
      "iso_half_11": "6 y",
      "iso_Z_11": "76",
      "iso_N_11": "118",
      "iso_A_11": "194",

      "iso_12": "Os-195",
      "iso_mass_12": "194.96813",
      "decay_type_12": "B-",
      "iso_half_12": "6.5 h",
      "iso_Z_12": "76",
      "iso_N_12": "119",
      "iso_A_12": "195",

      "iso_13": "Os-196",
      "iso_mass_13": "195.96964",
      "decay_type_13": "B-",
      "iso_half_13": "34.0 m",
      "iso_Z_13": "76",
      "iso_N_13": "120",
      "iso_A_13": "196",

      "iso_14": "Os-197",
      "iso_mass_14": "196.97283",
      "decay_type_14": "B-",
      "iso_half_14": "2.8 m",
      "iso_Z_14": "76",
      "iso_N_14": "121",
      "iso_A_14": "197",

      "iso_15": "Os-198",
      "iso_mass_15": "197.97441",
      "decay_type_15": "B-",
      "iso_half_15": "8.8 m",
      "iso_Z_15": "76",
      "iso_N_15": "122",
      "iso_A_15": "198",

      "iso_16": "Os-199",
      "iso_mass_16": "198.97801",
      "decay_type_16": "B-",
      "iso_half_16": "3.9 m",
      "iso_Z_16": "76",
      "iso_N_16": "123",
      "iso_A_16": "199",

      "iso_17": "Os-200",
      "iso_mass_17": "199.97984",
      "decay_type_17": "B-",
      "iso_half_17": "2.7 m",
      "iso_Z_17": "76",
      "iso_N_17": "124",
      "iso_A_17": "200",

      "iso_18": "Os-201",
      "iso_mass_18": "200.98364",
      "decay_type_18": "B-",
      "iso_half_18": "1.2 m",
      "iso_Z_18": "76",
      "iso_N_18": "125",
      "iso_A_18": "201",

      "iso_19": "Os-202",
      "iso_mass_19": "201.98595",
      "decay_type_19": "B-",
      "iso_half_19": "1.1 m",
      "iso_Z_19": "76",
      "iso_N_19": "126",
      "iso_A_19": "202",

      "iso_20": "Os-203",
      "iso_mass_20": "202.99002",
      "decay_type_20": "B-",
      "iso_half_20": "50 s",
      "iso_Z_20": "76",
      "iso_N_20": "127",
      "iso_A_20": "203",

      "iso_21": "Os-204",
      "iso_mass_21": "203.99280",
      "decay_type_21": "B-",
      "iso_half_21": "50 s",
      "iso_Z_21": "76",
      "iso_N_21": "128",
      "iso_A_21": "204",

      "iso_22": "Os-205",
      "iso_mass_22": "204.99735",
      "decay_type_22": "B-",
      "iso_half_22": "30 s",
      "iso_Z_22": "76",
      "iso_N_22": "129",
      "iso_A_22": "205",

      "iso_23": "Os-206",
      "iso_mass_23": "206.00020",
      "decay_type_23": "B-",
      "iso_half_23": "30 s",
      "iso_Z_23": "76",
      "iso_N_23": "130",
      "iso_A_23": "206",

      "iso_24": "Os-207",
      "iso_mass_24": "207.00501",
      "decay_type_24": "B-",
      "iso_half_24": "20 s",
      "iso_Z_24": "76",
      "iso_N_24": "131",
      "iso_A_24": "207",

      "iso_25": "Os-208",
      "iso_mass_25": "208.00817",
      "decay_type_25": "B-",
      "iso_half_25": "20 s",
      "iso_Z_25": "76",
      "iso_N_25": "132",
      "iso_A_25": "208",

      "iso_26": "Os-209",
      "iso_mass_26": "209.01330",
      "decay_type_26": "B-",
      "iso_half_26": "10 s",
      "iso_Z_26": "76",
      "iso_N_26": "133",
      "iso_A_26": "209",

      "iso_27": "Os-210",
      "iso_mass_27": "210.01726",
      "decay_type_27": "B-",
      "iso_half_27": "10 s",
      "iso_Z_27": "76",
      "iso_N_27": "134",
      "iso_A_27": "210",

      "iso_28": "Os-211",
      "iso_mass_28": "211.02170",
      "decay_type_28": "B-",
      "iso_half_28": "5 s",
      "iso_Z_28": "76",
      "iso_N_28": "135",
      "iso_A_28": "211",

      "iso_29": "Os-212",
      "iso_mass_29": "212.02640",
      "decay_type_29": "B-",
      "iso_half_29": "5 s",
      "iso_Z_29": "76",
      "iso_N_29": "136",
      "iso_A_29": "212",

      "iso_30": "Os-213",
      "iso_mass_30": "213.03140",
      "decay_type_30": "B-",
      "iso_half_30": "2 s",
      "iso_Z_30": "76",
      "iso_N_30": "137",
      "iso_A_30": "213",

      "iso_31": "Os-214",
      "iso_mass_31": "214.03660",
      "decay_type_31": "B-",
      "iso_half_31": "2 s",
      "iso_Z_31": "76",
      "iso_N_31": "138",
      "iso_A_31": "214",

      "iso_32": "Os-215",
      "iso_mass_32": "215.04210",
      "decay_type_32": "B-",
      "iso_half_32": "1 s",
      "iso_Z_32": "76",
      "iso_N_32": "139",
      "iso_A_32": "215",

      "iso_33": "Os-216",
      "iso_mass_33": "216.04770",
      "decay_type_33": "B-",
      "iso_half_33": "1 s",
      "iso_Z_33": "76",
      "iso_N_33": "140",
      "iso_A_33": "216"
  }
]