[
  {
    "wikilink": "https://en.wikipedia.org/wiki/Oxygen",
    "link": "https://upload.wikimedia.org/wikipedia/commons/c/c3/Liquid_oxygen_in_a_beaker_4.jpg",
    "description": "Oxygen is the chemical element with the symbol O and atomic number 8. It is a member of the chalcogen group in the periodic table, a highly reactive nonmetal, and an oxidizing agent that readily forms oxides with most elements as well as with other compounds. After hydrogen and helium, oxygen is the third-most abundant element in the universe by mass. At standard temperature and pressure, two atoms of the element bind to form dioxygen, a colorless and odorless diatomic gas with the formula O2. Diatomic oxygen gas constitutes 20.95% of the Earth's atmosphere. Oxygen makes up almost half of the Earth's crust in the form of oxides",

    "element": "Oxygen",
    "short": "O",
    "element_year": "1771",
    "element_discovered_name": "Carl Wilhelm Scheele",
    "element_group": "Other Nonmetal",
    "element_appearance": "Gas: Colorless, solid or liquid: pale blue",
    "element_electrons": "8",
    "element_protons": "8",
    "element_neutron_common": "8",

    "radioactive": "No",
    "neutron_cross_sectional": "0.00019 (b)",

    "electrical_type": "---",
    "resistivity": "---",
    "resistivity_mult": "---",
    "magnetic_type": "Paramagnetic",
    "superconducting_point": "---",

    "element_atomic_number": "8",
    "element_atomicmass": "15.999 (u)",
    "element_density": "0.001429 (g/cm^3)",
    "element_electronegativty": "3.44",
    "element_block": "p - block",
    "element_shells_electrons": "K2 L6 M0 N0 O0 P0 Q0 R0",
    "element_model": "https://upload.wikimedia.org/wikipedia/commons/thumb/b/b1/Electron_shell_008_Oxygen_%28diatomic_nonmetal%29_-_no_label.svg/1280px-Electron_shell_008_Oxygen_%28diatomic_nonmetal%29_-_no_label.svg.png",

    "element_boiling_kelvin": "90.188 (K)",
    "element_boiling_celsius": "−182.962 (°C)",
    "element_boiling_fahrenheit": "−297.332 (°F)",
    "element_melting_kelvin": "54.36 (K)",
    "element_melting_celsius": "−218.79 (°C)",
    "element_melting_fahrenheit": "−361.82 (°F)",

    "element_electron_config": "2s^2 2p^4",
    "element_ion_charge": "O^2-",
    "element_ionization_energy1": "13.61806 (eV)",
    "element_ionization_energy2": "35.11730 (eV)",
    "element_ionization_energy3": "54.9355 (eV)",
    "element_ionization_energy4": "77.41353 (eV)",
    "element_ionization_energy5": "113.8990 (eV)",
    "element_ionization_energy6": "138.1197 (eV)",
    "element_ionization_energy7": "739.29 (eV)",
    "element_ionization_energy8": "871.4101 (eV)",
    "element_atomic_radius_e": "60 (pm)",
    "element_atomic_radius": "48 (pm)",
    "element_covalent_radius": "73 (pm)",
    "element_van_der_waals": "152 (pm)",

    "element_phase": "Gas",
    "element_fusion_heat": "0.44 (O2) (kJ/mol)",
    "element_specific_heat_capacity": "0.918 (O2) J/(g·K)",
    "element_vaporization_heat": "6.82 (O2) (kJ/mol)",

    "oxidation_state_neg": "2 1 0",
    "oxidation_state_pos": "1 2",

    "iso_1": "O-14",
    "iso_mass_1": "14.008596706",
    "iso_half_1": "70.620 (s)",
    "iso_Z_1": "8",
    "iso_N_1": "6",
    "iso_A_1": "14",

    "iso_2": "O-15",
    "iso_mass_2": "15.0030656",
    "iso_half_2": "122.24 (s)",
    "iso_Z_2": "8",
    "iso_N_2": "7",
    "iso_A_2": "15",

    "iso_3": "O-16",
    "iso_mass_3": "15.99491461960",
    "iso_half_3": "Stable",
    "iso_Z_3": "8",
    "iso_N_3": "8",
    "iso_A_3": "16",

    "iso_4": "O-17",
    "iso_mass_4": "16.9991317566",
    "iso_half_4": "Stable",
    "iso_Z_4": "8",
    "iso_N_4": "9",
    "iso_A_4": "17",

    "iso_5": "O-18",
    "iso_mass_5": "17.9991596128",
    "iso_half_5": "Stable",
    "iso_Z_5": "8",
    "iso_N_5": "10",
    "iso_A_5": "18",

    "iso_6": "O-19",
    "iso_mass_6": "19.0035780",
    "iso_half_6": "26.470 (s)",
    "iso_Z_6": "8",
    "iso_N_6": "11",
    "iso_A_6": "19"
  }
]