[
  {
    "wikilink": "https://en.wikipedia.org/wiki/Palladium",
    "link": "https://upload.wikimedia.org/wikipedia/commons/d/d7/Palladium_%2846_Pd%29.jpg",

    "element": "Palladium",
    "element_year": "1802",
    "element_discovered_name": "William Hyde Wollaston",
    "element_group": "Transition Metals",
    "element_appearance": "Silvery White",
    "element_electrons": "46",
    "element_protons": "46",
    "element_neutron_common": "60",

    "element_atomic_number": "46",
    "element_atomicmass": "106.42 (u)",
    "element_density": "12.0 (g/cm^3)",
    "element_electronegativty": "2.20",
    "element_block": "d - block",
    "element_shells_electrons": "K2 L8 18 N18 O0 P0 Q0 R0",
    "element_model": "https://upload.wikimedia.org/wikipedia/commons/thumb/e/ed/Electron_shell_046_Palladium_-_no_label.svg/800px-Electron_shell_046_Palladium_-_no_label.svg.png",

    "element_boiling_kelvin": "3236 (K)",
    "element_boiling_celsius": "2963 (°C)",
    "element_boiling_fahrenheit": "5365 (°F)",
    "element_melting_kelvin": "1828.05 (K)",
    "element_melting_celsius": "1554.9 (°C)",
    "element_melting_fahrenheit": "2830.82 (°F)",

    "element_electron_config": "4d^10",
    "element_ion_charge": "Pd^2+, Pd^4+",
    "element_ionization_energy": "8.3369 (eV)",
    "element_atomic_radius": "169 (pm)",
    "element_covalent_radius": "131 (pm)",
    "element_van_der_waals": "163",

    "element_phase": "Solid",
    "element_fusion_heat": "16.74 (kJ/mol)",
    "element_specific_heat_capacity": "0.246 J/(g·K)",
    "element_vaporization_heat": "362 (kJ/mol)",

    "iso_1": "Pd-101",
    "iso_mass_1": "100.908289",
    "iso_half_1": "8.47 (h)",
    "iso_Z_1": "46",
    "iso_N_1": "55",
    "iso_A_1": "101",

    "iso_2": "Pd-102",
    "iso_mass_2": "101.905609",
    "iso_half_2": "Observationally Stable",
    "iso_Z_2": "46",
    "iso_N_2": "56",
    "iso_A_2": "102",

    "iso_3": "Pd-103",
    "iso_mass_3": "102.906087",
    "iso_half_3": "16.991 (days)",
    "iso_Z_3": "46",
    "iso_N_3": "57",
    "iso_A_3": "103",

    "iso_4": "Pd-104",
    "iso_mass_4": "103.904036",
    "iso_half_4": "Stable",
    "iso_Z_4": "46",
    "iso_N_4": "58",
    "iso_A_4": "104",

    "iso_5": "Pd-105",
    "iso_mass_5": "104.905085",
    "iso_half_5": "Stable",
    "iso_Z_5": "46",
    "iso_N_5": "59",
    "iso_A_5": "105",

    "iso_6": "Pd-106",
    "iso_mass_6": "105.903486",
    "iso_half_6": "Stable",
    "iso_Z_6": "46",
    "iso_N_6": "60",
    "iso_A_6": "106",

    "iso_7": "Pd-107",
    "iso_mass_7": "106.905133",
    "iso_half_7": "6.5×10^6 (years)",
    "iso_Z_7": "46",
    "iso_N_7": "61",
    "iso_A_7": "107",

    "iso_8": "Pd-108",
    "iso_mass_8": "107.903892",
    "iso_half_8": "Stable",
    "iso_Z_8": "46",
    "iso_N_8": "62",
    "iso_A_8": "108",

    "iso_9": "Pd-109",
    "iso_mass_9": "108.905950",
    "iso_half_9": "13.7012 (hours)",
    "iso_Z_9": "46",
    "iso_N_9": "63",
    "iso_A_9": "109"
  }
]