[
  {
    "wikilink": "https://en.wikipedia.org/wiki/Praseodymium",
    "link": "https://upload.wikimedia.org/wikipedia/commons/c/c7/Praseodymium.jpg",

    "element": "Praseodymium",
    "short": "Pr",
    "element_year": "1885",
    "element_discovered_name": "Carl Auer von Welsbach",
    "element_group": "Lanthanoids",
    "element_appearance": "Grayish White",
    "element_electrons": "59",
    "element_protons": "59",
    "element_neutron_common": "82",

    "element_atomic_number": "59",
    "element_atomicmass": "140.908 (u)",
    "element_density": "6.77 (g/cm^3)",
    "element_electronegativty": "1.13",
    "element_block": "f - block",
    "element_shells_electrons": "K2 L8 18 N21 O8 P2 Q0 R0",
    "element_model": "https://upload.wikimedia.org/wikipedia/commons/thumb/3/32/Electron_shell_059_Praseodymium_-_no_label.svg/800px-Electron_shell_059_Praseodymium_-_no_label.svg.png",

    "element_boiling_kelvin": "3403 (K)",
    "element_boiling_celsius": "3130 (°C)",
    "element_boiling_fahrenheit": "5666 (°F)",
    "element_melting_kelvin": "1208 (K)",
    "element_melting_celsius": "935 (°C)",
    "element_melting_fahrenheit": "1715 (°F)",

    "element_electron_config": "4f^3 6s^2",
    "element_ion_charge": "Pr^3+",
    "element_ionization_energy": "5.473 (eV)",
    "element_atomic_radius_e": "185 (pm)",
    "element_atomic_radius": "247 (pm)",
    "element_covalent_radius": "--- (pm)",
    "element_van_der_waals": "---",

    "element_phase": "Solid",
    "element_fusion_heat": "6.89 (kJ/mol)",
    "element_specific_heat_capacity": "0.193 J/(g·K)",
    "element_vaporization_heat": "331 (kJ/mol)",

    "oxidation_state_neg": "0",
    "oxidation_state_pos": "1 2 3 4 5",

    "iso_1": "Pr-140",
    "iso_mass_1": "139.909076",
    "iso_half_1": "3.39 (min)",
    "iso_Z_1": "59",
    "iso_N_1": "81",
    "iso_A_1": "140",

    "iso_2": "Pr-141",
    "iso_mass_2": "140.9076528",
    "iso_half_2": "Stable",
    "iso_Z_2": "59",
    "iso_N_2": "82",
    "iso_A_2": "141",

    "iso_3": "Pr-142",
    "iso_mass_3": "141.9100448",
    "iso_half_3": "19.12 (hours)",
    "iso_Z_3": "59",
    "iso_N_3": "83",
    "iso_A_3": "142"
  }
]