[
  {
    "wikilink": "https://en.wikipedia.org/wiki/Radon",
    "link": "http://images-of-elements.com/radon.jpg",

    "element": "Radon",
    "element_year": "Dale R. Corson",
    "element_discovered_name": "1940",
    "element_group": "Halogens",
    "element_appearance": "unknown, probably metallic",
    "element_electrons": "86",
    "element_protons": "86",
    "element_neutron_common": "136",

    "element_atomic_number": "86",
    "element_atomicmass": "222 (u)",
    "element_density": "0.0098 (g/cm^3)",
    "element_electronegativty": "2.2",
    "element_block": "p - block",
    "element_shells_electrons": "K2 L8 M18 N32 O18 P8 Q0 R0",
    "element_model": "https://upload.wikimedia.org/wikipedia/commons/thumb/0/04/Electron_shell_086_Radon_-_no_label.svg/800px-Electron_shell_086_Radon_-_no_label.svg.png",

    "element_boiling_kelvin": "211.5 (K)",
    "element_boiling_celsius": "−61.7 (°C)",
    "element_boiling_fahrenheit": "−79.1 (°F)",
    "element_melting_kelvin": "202 (K)",
    "element_melting_celsius": "−71 (°C)",
    "element_melting_fahrenheit": "−96 (°F)",

    "element_electron_config": "4f^14, 5d^10, 6s^2, 6p^6",
    "element_ion_charge": "---",
    "element_ionization_energy": "10.74850 (eV)",
    "element_atomic_radius_e": "--- (pm)",
    "element_atomic_radius": "120 (pm)",
    "element_covalent_radius": "220",
    "element_van_der_waals": "145 (pm)",

    "element_phase": "Gas",
    "element_fusion_heat": "3.247 (kJ/mol)",
    "element_specific_heat_capacity": "0.094 J/(g·K)",
    "element_vaporization_heat": "18.10 (kJ/mol)",

    "iso_1": "Rn-220",
    "iso_mass_1": "220.0113940",
    "iso_half_1": "55.6 (s)",
    "iso_Z_1": "86",
    "iso_N_1": "134",
    "iso_A_1": "220",

    "iso_2": "Rn-221",
    "iso_mass_2": "221.015537",
    "iso_half_2": "25.7 (min)",
    "iso_Z_2": "86",
    "iso_N_2": "135",
    "iso_A_2": "221",

    "iso_3": "Rn-222",
    "iso_mass_3": "222.0175777",
    "iso_half_3": "3.8235 (days)",
    "iso_Z_3": "86",
    "iso_N_3": "136",
    "iso_A_3": "222",

    "iso_4": "Rn-223",
    "iso_mass_4": "223.02179",
    "iso_half_4": "24.3 (min)",
    "iso_Z_4": "86",
    "iso_N_4": "137",
    "iso_A_4": "223"
  }
]