[
  {
    "wikilink": "https://en.wikipedia.org/wiki/Ruthenium",
    "link": "https://upload.wikimedia.org/wikipedia/commons/thumb/2/2c/Ruthenium_a_half_bar.jpg/1920px-Ruthenium_a_half_bar.jpg",

    "element": "Ruthenium",
    "element_year": "1844",
    "element_discovered_name": "Karl Ernst Claus",
    "element_group": "Transition Metals",
    "element_appearance": "Silvery White Metallic",
    "element_electrons": "44",
    "element_protons": "44",
    "element_neutron_common": "58",

    "element_atomic_number": "44",
    "element_atomicmass": "101.07 (u)",
    "element_density": "12.1 (g/cm^3)",
    "element_electronegativty": "2.2",
    "element_block": "d - block",
    "element_shells_electrons": "K2 L8 18 N15 O1 P0 Q0 R0",
    "element_model": "https://upload.wikimedia.org/wikipedia/commons/thumb/7/76/Electron_shell_044_Ruthenium_-_no_label.svg/1024px-Electron_shell_044_Ruthenium_-_no_label.svg.png",

    "element_boiling_kelvin": "4423 (K)",
    "element_boiling_celsius": "4150 (°C)",
    "element_boiling_fahrenheit": "7502 (°F)",
    "element_melting_kelvin": "2607 (K)",
    "element_melting_celsius": "2334 (°C)",
    "element_melting_fahrenheit": "4233 (°F)",

    "element_electron_config": "4d^7 5s^1",
    "element_ion_charge": "Ru^3+, Ru^4+",
    "element_ionization_energy": "7.36050 (eV)",
    "element_atomic_radius": "178 (pm)",
    "element_covalent_radius": "126 (pm)",
    "element_van_der_waals": "--- (pm)",

    "element_phase": "Solid",
    "element_fusion_heat": "38.59 (kJ/mol)",
    "element_specific_heat_capacity": "0.238 J/(g·K)",
    "element_vaporization_heat": "591.6 (kJ/mol)",

    "iso_1": "Ru-95",
    "iso_mass_1": "94.910413",
    "iso_half_1": "1.643 (h)",
    "iso_Z_1": "44",
    "iso_N_1": "51",
    "iso_A_1": "95",

    "iso_2": "Ru-96",
    "iso_mass_2": "95.907598",
    "iso_half_2": "Observationally Stable",
    "iso_Z_2": "44",
    "iso_N_2": "52",
    "iso_A_2": "96",

    "iso_3": "Ru-97",
    "iso_mass_3": "96.907555",
    "iso_half_3": "2.791 (days)",
    "iso_Z_3": "44",
    "iso_N_3": "53",
    "iso_A_3": "97",

    "iso_4": "Ru-98",
    "iso_mass_4": "97.905287",
    "iso_half_4": "Stable",
    "iso_Z_4": "44",
    "iso_N_4": "54",
    "iso_A_4": "98",

    "iso_5": "Ru-99",
    "iso_mass_5": "98.9059393",
    "iso_half_5": "Stable",
    "iso_Z_5": "44",
    "iso_N_5": "55",
    "iso_A_5": "99",

    "iso_6": "Ru-100",
    "iso_mass_6": "99.9042195",
    "iso_half_6": "Stable",
    "iso_Z_6": "44",
    "iso_N_6": "56",
    "iso_A_6": "100",

    "iso_7": "Ru-101",
    "iso_mass_7": "100.9055821",
    "iso_half_7": "Stable",
    "iso_Z_7": "44",
    "iso_N_7": "57",
    "iso_A_7": "101",

    "iso_8": "Ru-102",
    "iso_mass_8": "101.9043493",
    "iso_half_8": "Stable",
    "iso_Z_8": "44",
    "iso_N_8": "58",
    "iso_A_8": "102",

    "iso_9": "Ru-103",
    "iso_mass_9": "102.9063238",
    "iso_half_9": "39.26 (d)",
    "iso_Z_9": "44",
    "iso_N_9": "59",
    "iso_A_9": "103",

    "iso_10": "Ru-104",
    "iso_mass_10": "103.905433",
    "iso_half_10": "Observationally Stable",
    "iso_Z_10": "44",
    "iso_N_10": "60",
    "iso_A_10": "104",

    "iso_11": "Ru-105",
    "iso_mass_11": "104.907753",
    "iso_half_11": "4.44 (hours)",
    "iso_Z_11": "44",
    "iso_N_11": "61",
    "iso_A_11": "105"
  }
]