[
  {
    "wikilink": "https://en.wikipedia.org/wiki/Scandium",
    "link": "https://upload.wikimedia.org/wikipedia/commons/thumb/e/e6/Scandium_sublimed_dendritic_and_1cm3_cube.jpg/220px-Scandium_sublimed_dendritic_and_1cm3_cube.jpg",
    "description": "Scandium is a chemical element with the symbol Sc and atomic number 21. A silvery-white metallic d-block element, it has historically been classified as a rare-earth element, together with yttrium and the lanthanides. It was discovered in 1879 by spectral analysis of the minerals euxenite and gadolinite from Scandinavia.",

    "element": "Scandium",
    "short": "Sc",
    "element_year": "1879",
    "element_discovered_name": "Lars Fredrik Nilson",
    "element_group": "Transition Metals",
    "element_appearance": "Silvery White",
    "element_electrons": "21",
    "element_protons": "21",
    "element_neutron_common": "24",

    "electrical_type": "Conductor",
    "resistivity": "5.5",
    "resistivity_mult": "0.0000001",
    "magnetic_type": "Paramagnetic",
    "superconducting_point": "0.05",

    "element_atomic_number": "21",
    "element_atomicmass": "44.9559 (u)",
    "element_density": "2.99 (g/cm^3)",
    "element_electronegativty": "1.36",
    "element_block": "d - block",
    "element_shells_electrons": "K2 L8 M9 N2 O0 P0 Q0 R0",
    "element_model": "https://upload.wikimedia.org/wikipedia/commons/thumb/b/b7/Electron_shell_021_Scandium_-_no_label.svg/800px-Electron_shell_021_Scandium_-_no_label.svg.png",

    "element_boiling_kelvin": "3109 (K)",
    "element_boiling_celsius": "2836 (°C)",
    "element_boiling_fahrenheit": "5136 (°F)",
    "element_melting_kelvin": "1814 (K)",
    "element_melting_celsius": "1541 (°C)",
    "element_melting_fahrenheit": "2806 (°F)",

    "element_electron_config": "3d^1 4s^2",
    "element_ion_charge": "Sc^3+",
    "element_ionization_energy": "6.5615 (eV)",
    "element_atomic_radius_e": "160 (pm)",
    "element_atomic_radius": "184 (pm)",
    "element_covalent_radius": "144 (pm)",
    "element_van_der_waals": "211 (pm)",

    "element_phase": "Solid",
    "element_fusion_heat": "14.1 (kJ/mol)",
    "element_specific_heat_capacity": "0.568 J/(g·K)",
    "element_vaporization_heat": "332.7 (kJ/mol)",

    "oxidation_state_neg": "0",
    "oxidation_state_pos": "1 2 3",

    "iso_1": "Sc-44",
    "iso_mass_1": "43.9594028",
    "iso_half_1": "3.97 (h)",
    "iso_Z_1": "21",
    "iso_N_1": "23",
    "iso_A_1": "44",

    "iso_2": "Sc-45",
    "iso_mass_2": "44.9559119",
    "iso_half_2": "Stable",
    "iso_Z_2": "21",
    "iso_N_2": "24",
    "iso_A_2": "45",

    "iso_3": "Sc-46",
    "iso_mass_3": "45.9551719",
    "iso_half_3": "83.79 (days)",
    "iso_Z_3": "21",
    "iso_N_3": "25",
    "iso_A_3": "46",

    "iso_4": "Sc-47",
    "iso_mass_4": "46.9524075",
    "iso_half_4": "3.3492 (days)",
    "iso_Z_4": "21",
    "iso_N_4": "26",
    "iso_A_4": "47"
  }
]