[
  {
    "wikilink": "https://en.wikipedia.org/wiki/Selenium",
    "link": "https://upload.wikimedia.org/wikipedia/commons/4/47/SeBlackRed.jpg",

    "element": "Selenium",
    "short": "Se",
    "element_year": "1817",
    "element_discovered_name": "Jöns Jakob Berzelius",
    "element_group": "Other Nonmetals",
    "element_appearance": "Black, Red and Gray",
    "element_electrons": "34",
    "element_protons": "34",
    "element_neutron_common": "46",

    "element_atomic_number": "34",
    "element_atomicmass": "78.971 (u)",
    "element_density": "Gray: 4.81 (g/cm^3)",
    "element_electronegativty": "2.55",
    "element_block": "p - block",
    "element_shells_electrons": "K2 L8 18 N6 O0 P0 Q0 R0",
    "element_model": "https://upload.wikimedia.org/wikipedia/commons/thumb/8/8c/Electron_shell_034_Selenium_%28polyatomic_nonmetal%29_-_no_label.svg/1280px-Electron_shell_034_Selenium_%28polyatomic_nonmetal%29_-_no_label.svg.png",

    "element_boiling_kelvin": "958 (K)",
    "element_boiling_celsius": "685 (°C)",
    "element_boiling_fahrenheit": "1265 (°F)",
    "element_melting_kelvin": "494 (K)",
    "element_melting_celsius": "221 (°C)",
    "element_melting_fahrenheit": "430 (°F)",

    "element_electron_config": "3d^10 4s^2 4p^4",
    "element_ion_charge": "Se^2-",
    "element_ionization_energy": "9.75238 (eV)",
    "element_atomic_radius_e": "115 (pm)",
    "element_atomic_radius": "103 (pm)",
    "element_covalent_radius": "116 (pm)",
    "element_van_der_waals": "190 (pm)",

    "element_phase": "Solid",
    "element_fusion_heat": "Gray: 6.69 (kJ/mol)",
    "element_specific_heat_capacity": "0.321 J/(g·K)",
    "element_vaporization_heat": "26 (kJ/mol)",

    "oxidation_state_neg": "2 1",
    "oxidation_state_pos": "1 2 3 4 5 6",

    "iso_1": "Se-73",
    "iso_mass_1": "72.926765",
    "iso_half_1": "7.15 (hours)",
    "iso_Z_1": "34",
    "iso_N_1": "39",
    "iso_A_1": "73",

    "iso_2": "Se-74",
    "iso_mass_2": "73.9224764",
    "iso_half_2": "Observationally Stable",
    "iso_Z_2": "34",
    "iso_N_2": "40",
    "iso_A_2": "74",

    "iso_3": "Se-75",
    "iso_mass_3": "74.9225234",
    "iso_half_3": "119.779 (days)",
    "iso_Z_3": "34",
    "iso_N_3": "41",
    "iso_A_3": "75",

    "iso_4": "Se-76",
    "iso_mass_4": "75.9192136",
    "iso_half_4": "Stable",
    "iso_Z_4": "34",
    "iso_N_4": "42",
    "iso_A_4": "76",

    "iso_5": "Se-77",
    "iso_mass_5": "76.9199140",
    "iso_half_5": "Stable",
    "iso_Z_5": "34",
    "iso_N_5": "43",
    "iso_A_5": "77",

    "iso_6": "Se-78",
    "iso_mass_6": "77.9173091",
    "iso_half_6": "Stable",
    "iso_Z_6": "34",
    "iso_N_6": "44",
    "iso_A_6": "78",

    "iso_7": "Se-79",
    "iso_mass_7": "78.9184991",
    "iso_half_7": "3.27×10^5 (years)",
    "iso_Z_7": "34",
    "iso_N_7": "45",
    "iso_A_7": "79",

    "iso_8": "Se-80",
    "iso_mass_8": "79.9165213",
    "iso_half_8": "Observationally Stable",
    "iso_Z_8": "34",
    "iso_N_8": "46",
    "iso_A_8": "80",

    "iso_9": "Se-81",
    "iso_mass_9": "80.9179925",
    "iso_half_9": "18.45 (min)",
    "iso_Z_9": "34",
    "iso_N_9": "47",
    "iso_A_9": "81"
  }
]