[
  {
    "wikilink": "https://en.wikipedia.org/wiki/Sodium",
    "link": "https://upload.wikimedia.org/wikipedia/commons/thumb/2/27/Na_%28Sodium%29.jpg/1920px-Na_%28Sodium%29.jpg",

    "element": "Sodium",
    "short": "Na",
    "element_year": "1807",
    "element_discovered_name": "Humphry Davy",
    "element_group": "Alkali Metals",
    "element_appearance": "Silvery White Metall",
    "element_electrons": "11",
    "element_protons": "11",
    "element_neutron_common": "12",

    "electrical_type": "Conductor",
    "resistivity": "4.7",
    "resistivity_mult": "0.00000001",
    "magnetic_type": "Paramagnetic",
    "superconducting_point": "0.022",

    "element_atomic_number": "11",
    "element_atomicmass": "22.9898 (u)",
    "element_density": "0.97 (g/cm^3)",
    "element_electronegativty": "0.93",
    "element_block": "s - block",
    "element_shells_electrons": "K2 L8 M1 N0 O0 P0 Q0 R0",
    "element_model": "https://upload.wikimedia.org/wikipedia/commons/thumb/8/87/Electron_shell_011_Sodium_-_no_label.svg/1280px-Electron_shell_011_Sodium_-_no_label.svg.png",

    "element_boiling_kelvin": "1156.090 (K)",
    "element_boiling_celsius": "882.940 (°C)",
    "element_boiling_fahrenheit": "1621.292 (°F)",
    "element_melting_kelvin": "370.944 (K)",
    "element_melting_celsius": "97.794 (°C)",
    "element_melting_fahrenheit": "208.029 (°F)",

    "element_electron_config": "3s^1",
    "element_ion_charge": "Na^+",
    "element_ionization_energy": "5.13908 (eV)",
    "element_atomic_radius_e": "180 (pm)",
    "element_atomic_radius": "190 (pm)",
    "element_covalent_radius": "154 (pm)",
    "element_van_der_waals": "227 (pm)",

    "element_phase": "Solid",
    "element_fusion_heat": "2.60 (kJ/mol)",
    "element_specific_heat_capacity": "1.228 J/(g·K)",
    "element_vaporization_heat": "97.42 (kJ/mol)",

    "oxidation_state_neg": "1",
    "oxidation_state_pos": "1",

    "iso_1": "Na-21",
    "iso_mass_1": "20.99765470",
    "iso_half_1": "22.422 (s)",
    "iso_Z_1": "11",
    "iso_N_1": "10",
    "iso_A_1": "21",

    "iso_2": "Na-22",
    "iso_mass_2": "21.99443742",
    "iso_half_2": "2.6018 (Years)",
    "iso_Z_2": "11",
    "iso_N_2": "11",
    "iso_A_2": "22",

    "iso_3": "Na-23",
    "iso_mass_3": "22.9897692820",
    "iso_half_3": "Stable",
    "iso_Z_3": "11",
    "iso_N_3": "12",
    "iso_A_3": "23",

    "iso_4": "Na-24",
    "iso_mass_4": "23.990963011",
    "iso_half_4": "14.957 (h)",
    "iso_Z_4": "11",
    "iso_N_4": "13",
    "iso_A_4": "24",

    "iso_5": "Na-25",
    "iso_mass_5": "24.9899540",
    "iso_half_5": "59.1 (s)",
    "iso_Z_5": "11",
    "iso_N_5": "14",
    "iso_A_5": "25",

    "iso_6": "Na-26",
    "iso_mass_6": "25.992635",
    "iso_half_6": "1.07128 (s)",
    "iso_Z_6": "11",
    "iso_N_6": "15",
    "iso_A_6": "25"
  }
]