[
  {
    "wikilink": "https://en.wikipedia.org/wiki/Strontium",
    "link": "https://upload.wikimedia.org/wikipedia/commons/thumb/4/41/Strontium_destilled_crystals.jpg/2560px-Strontium_destilled_crystals.jpg",
    "description": "Strontium is the chemical element with the symbol Sr and atomic number 38. An alkaline earth metal, strontium is a soft silver-white yellowish metallic element that is highly chemically reactive. The metal forms a dark oxide layer when it is exposed to air. Strontium has physical and chemical properties similar to those of its two vertical neighbors in the periodic table, calcium and barium. It occurs naturally mainly in the minerals celestine and strontianite, and is mostly mined from these.",

    "element": "Strontium",
    "short": "Sr",
    "element_year": "1787",
    "element_discovered_name": "William Cruickshank",
    "element_group": "Alkaline Earth Metals",
    "element_appearance": "Silvery White Metallic with a pale yellow tint",
    "element_electrons": "38",
    "element_protons": "38",
    "element_neutron_common": "50",

    "electrical_type": "Conductor",
    "resistivity": "1.3",
    "resistivity_mult": "0.0000001",
    "magnetic_type": "Paramagnetic",
    "superconducting_point": "---",

    "element_atomic_number": "38",
    "element_atomicmass": "87.62 (u)",
    "element_density": "2.64 (g/cm^3)",
    "element_electronegativty": "0.95",
    "element_block": "s - block",
    "element_shells_electrons": "K2 L8 18 N8 O2 P0 Q0 R0",
    "element_model": "https://upload.wikimedia.org/wikipedia/commons/thumb/8/83/Electron_shell_038_Strontium_-_no_label.svg/1280px-Electron_shell_038_Strontium_-_no_label.svg.png",

    "element_boiling_kelvin": "1650 (K)",
    "element_boiling_celsius": "1377 (°C)",
    "element_boiling_fahrenheit": "2511 (°F)",
    "element_melting_kelvin": "1050 (K)",
    "element_melting_celsius": "777 (°C)",
    "element_melting_fahrenheit": "1431 (°F)",

    "element_electron_config": "5s^2",
    "element_ion_charge": "Sr^2+",
    "element_ionization_energy": "5.6949 (eV)",
    "element_atomic_radius_e": "200 (pm)",
    "element_atomic_radius": "219 (pm)",
    "element_covalent_radius": "192 (pm)",
    "element_van_der_waals": "249 (pm)",

    "element_phase": "Solid",
    "element_fusion_heat": "7.43 (kJ/mol)",
    "element_specific_heat_capacity": "0.301 J/(g·K)",
    "element_vaporization_heat": "136.9 (kJ/mol)",

    "oxidation_state_neg": "",
    "oxidation_state_pos": "1 2",

    "iso_1": "Sr-84",
    "iso_mass_1": "83.913425",
    "iso_half_1": "Observationally Stable",
    "iso_Z_1": "38",
    "iso_N_1": "46",
    "iso_A_1": "84",

    "iso_2": "Sr-85",
    "iso_mass_2": "84.912933",
    "iso_half_2": "64.853 (days)",
    "iso_Z_2": "38",
    "iso_N_2": "47",
    "iso_A_2": "85",

    "iso_3": "Sr-86",
    "iso_mass_3": "85.9092607309",
    "iso_half_3": "Stable",
    "iso_Z_3": "38",
    "iso_N_3": "48",
    "iso_A_3": "86",

    "iso_4": "Sr-87",
    "iso_mass_4": "86.9088774970",
    "iso_half_4": "Stable",
    "iso_Z_4": "38",
    "iso_N_4": "49",
    "iso_A_4": "87",

    "iso_5": "Sr-88",
    "iso_mass_5": "87.9056122571",
    "iso_half_5": "Stable",
    "iso_Z_5": "38",
    "iso_N_5": "50",
    "iso_A_5": "88",

    "iso_6": "Sr-89",
    "iso_mass_6": "88.9074507",
    "iso_half_6": "50.57 (days)",
    "iso_Z_6": "38",
    "iso_N_6": "51",
    "iso_A_6": "89",

    "iso_7": "Sr-90",
    "iso_mass_7": "89.907738",
    "iso_half_7": "28.90 (years)",
    "iso_Z_7": "38",
    "iso_N_7": "52",
    "iso_A_7": "90",

    "iso_8": "Sr-91",
    "iso_mass_8": "90.910203",
    "iso_half_8": "9.63 (hours)",
    "iso_Z_8": "38",
    "iso_N_8": "53",
    "iso_A_8": "91",

    "iso_9": "Sr-92",
    "iso_mass_9": "91.911038",
    "iso_half_9": "2.66 (hours)",
    "iso_Z_9": "38",
    "iso_N_9": "54",
    "iso_A_9": "92",

    "iso_10": "Sr-93",
    "iso_mass_10": "92.914026",
    "iso_half_10": "7.423 (min)",
    "iso_Z_10": "38",
    "iso_N_10": "55",
    "iso_A_10": "93",

    "iso_11": "Sr-94",
    "iso_mass_11": "93.915361",
    "iso_half_11": "75.3 (s)",
    "iso_Z_11": "38",
    "iso_N_11": "56",
    "iso_A_11": "94"
  }
]