[
  {
    "wikilink": "https://en.wikipedia.org/wiki/Technetium",
    "link": "http://www.galleries.com/minerals/silicate/gadolini/gadolini.jpg",
    "description": "Technetium is a chemical element with the symbol Tc and atomic number 43. It is the lightest element whose isotopes are all radioactive, none of which is stable other than the fully-ionized state of Tc-97. Nearly all available technetium is produced as a synthetic element, and only about 18,000 tons are estimated to exist at any given time in the Earth's crust. Naturally-occurring technetium is a spontaneous fission product in uranium ore and thorium ore, the most common source, or the product of neutron capture in molybdenum ores. The silvery gray, crystalline transition metal lies between manganese and rhenium in group 7 of the periodic table, and its chemical properties are intermediate between those of both adjacent elements. The most common naturally-occurring isotope is Tc-99.",

    "element": "Technetium",
    "short": "Tc",
    "element_year": "1937",
    "element_discovered_name": "Emilio Segrè",
    "element_group": "Transition Metals",
    "element_appearance": "Shiny Gray Metallic",
    "element_electrons": "43",
    "element_protons": "43",
    "element_neutron_common": "56",

    "radioactive": "No",
    "neutron_cross_sectional": "20 (b)",

    "electrical_type": "Conductor",
    "resistivity": "2",
    "resistivity_mult": "0.0000001",
    "magnetic_type": "Paramagnetic",
    "superconducting_point": "7.8",

    "element_atomic_number": "43",
    "element_atomicmass": "98.906 (u)",
    "element_density": "11 (g/cm^3)",
    "element_electronegativty": "1.9",
    "element_block": "d - block",
    "element_shells_electrons": "K2 L8 18 N13 O2 P0 Q0 R0",
    "element_model": "https://upload.wikimedia.org/wikipedia/commons/thumb/b/b3/Electron_shell_043_Technetium_-_no_label.svg/1024px-Electron_shell_043_Technetium_-_no_label.svg.png",

    "element_boiling_kelvin": "4538 (K)",
    "element_boiling_celsius": "4265 (°C)",
    "element_boiling_fahrenheit": "7709 (°F)",
    "element_melting_kelvin": "2430 (K)",
    "element_melting_celsius": "2157 (°C)",
    "element_melting_fahrenheit": "3915 (°F)",

    "element_electron_config": "4d^5 5s^2",
    "element_ion_charge": "Tc^7+",
    "element_ionization_energy1": "7.28 (eV)",
    "element_ionization_energy2": "15.26 (eV)",
    "element_ionization_energy3": "29.54 (eV)",
    "element_atomic_radius_e": "135 (pm)",
    "element_atomic_radius": "183 (pm)",
    "element_covalent_radius": "156 (pm)",
    "element_van_der_waals": "--- (pm)",

    "element_phase": "Solid",
    "element_fusion_heat": "33.29 (kJ/mol)",
    "element_specific_heat_capacity": "--- J/(g·K)",
    "element_vaporization_heat": "550 (kJ/mol)",

    "oxidation_state_neg": "3 1 0",
    "oxidation_state_pos": "1 2 3 4 5 6 7",

    "iso_1": "Tc-96",
    "iso_mass_1": "95.907871",
    "iso_half_1": "4.28 (days)",
    "iso_Z_1": "43",
    "iso_N_1": "53",
    "iso_A_1": "96",

    "iso_2": "Tc-97",
    "iso_mass_2": "96.906365",
    "iso_half_2": "2.6×10^6 (years)",
    "iso_Z_2": "43",
    "iso_N_2": "54",
    "iso_A_2": "97",

    "iso_3": "Tc-98",
    "iso_mass_3": "97.907216",
    "iso_half_3": "4.2×10^6 (years)",
    "iso_Z_3": "43",
    "iso_N_3": "55",
    "iso_A_3": "98",

    "iso_4": "Tc-99",
    "iso_mass_4": "98.9062547",
    "iso_half_4": "2.111×10^5",
    "iso_Z_4": "43",
    "iso_N_4": "56",
    "iso_A_4": "99",

    "iso_5": "Tc-100",
    "iso_mass_5": "99.9076578",
    "iso_half_5": "15.8 (s)",
    "iso_Z_5": "43",
    "iso_N_5": "57",
    "iso_A_5": "100"
  }
]