[
  {
"element_code": "AAhCREPWtZzX9etQdZZ",
    "wikilink": "https://en.wikipedia.org/wiki/Tin",
    "link": "https://upload.wikimedia.org/wikipedia/commons/thumb/2/2b/Sn-Alpha-Beta.jpg/1024px-Sn-Alpha-Beta.jpg",
    "description": "Tin is a chemical element with the symbol Sn (from Latin: stannum) and atomic number 50. Tin is a silvery metal that characteristically has a faint yellow hue. Tin, like indium, is soft enough to be cut without much force. When a bar of tin is bent, the so-called “tin cry” can be heard as a result of sliding tin crystals reforming; this trait is shared by indium, cadmium, and frozen mercury.",

    "element": "Tin",
    "short": "Sn",
    "element_year": "Deep Antiquity",
    "element_discovered_name": "---",
    "element_group": "Post-Transition Metals",
    "element_appearance": "Silvery White or Gray",
    "element_electrons": "50",
    "element_protons": "50",
    "element_neutron_common": "70",

    "radioactive": "No",
    "neutron_cross_sectional": "0.626 (b)",

    "electrical_type": "Conductor",
    "resistivity": "1.1",
    "resistivity_mult": "0.0000001",
    "magnetic_type": "Diamagnetic",
    "superconducting_point": "3.72",

    "element_atomic_number": "50",
    "element_atomicmass": "118.710 (u)",
    "element_density": "7.265 (g/cm^3)",
    "element_electronegativty": "1.96",
    "element_block": "p - block",
    "element_shells_electrons": "K2 L8 18 N18 O4 P0 Q0 R0",
    "element_model": "https://upload.wikimedia.org/wikipedia/commons/thumb/1/13/Electron_shell_050_Tin_-_no_label.svg/800px-Electron_shell_050_Tin_-_no_label.svg.png",

    "element_boiling_kelvin": "2875 (K)",
    "element_boiling_celsius": "2602 (°C)",
    "element_boiling_fahrenheit": "4716 (°F)",
    "element_melting_kelvin": "505.08 (K)",
    "element_melting_celsius": "231.93 (°C)",
    "element_melting_fahrenheit": "449.47 (°F)",

    "element_electron_config": "4d^10 5s^2 5p^2",
    "element_ion_charge": "Sn^4+, Sn^2+",
    "element_ionization_energy1": "7.3439 (eV)",
    "element_ionization_energy2": "14.63225 (eV)",
    "element_ionization_energy3": "30.50260 (eV)",
    "element_ionization_energy4": "40.73502 (eV)",
    "element_ionization_energy5": "72.28 (eV)",
    "element_atomic_radius_e": "145 (pm)",
    "element_atomic_radius": "145 (pm)",
    "element_covalent_radius": "141 (pm)",
    "element_van_der_waals": "217",

    "element_phase": "Solid",
    "element_fusion_heat": "7.173 (kJ/mol)",
    "element_specific_heat_capacity": "0.228 J/(g·K)",
    "element_vaporization_heat": "296.1 (kJ/mol)",

    "oxidation_state_neg": "4 3 2 1 0",
    "oxidation_state_pos": "1 2 3 4",

    "speed_of_sound_gas": "---",
    "speed_of_sound_liquid": "---",
    "speed_of_sound_solid": "2730 (m/s) [room temperature, rolled]",

    "mohs_hardness": "1.5",
    "vickers_hardness": "---",
    "brinell_hardness": "51-75 (MPa)",

    "young_modulus": "50 (GPa)",
    "poisson_ratio": "0.36",
    "bulk_modulus": "58 (GPa)",
    "shear_modulus": "18 (GPa)",

      "iso_1": "Sn-99",
      "iso_mass_1": "98.94850",
      "iso_half_1": "24 (ms)",
      "decay_type_1": "B+",
      "iso_Z_1": "50",
      "iso_N_1": "49",
      "iso_A_1": "99",

      "iso_2": "Sn-100",
      "iso_mass_2": "99.93865",
      "iso_half_2": "1.18 (s)",
      "decay_type_2": "B+",
      "iso_Z_2": "50",
      "iso_N_2": "50",
      "iso_A_2": "100",

      "iso_3": "Sn-101",
      "iso_mass_3": "100.93526",
      "iso_half_3": "2.22 (s)",
      "decay_type_3": "B+",
      "iso_Z_3": "50",
      "iso_N_3": "51",
      "iso_A_3": "101",

      "iso_4": "Sn-102",
      "iso_mass_4": "101.93029",
      "iso_half_4": "3.8 (s)",
      "decay_type_4": "B+",
      "iso_Z_4": "50",
      "iso_N_4": "52",
      "iso_A_4": "102",

      "iso_5": "Sn-103",
      "iso_mass_5": "102.92797",
      "iso_half_5": "7.0 (s)",
      "decay_type_5": "B+",
      "iso_Z_5": "50",
      "iso_N_5": "53",
      "iso_A_5": "103",

      "iso_6": "Sn-104",
      "iso_mass_6": "103.923105",
      "iso_half_6": "20.8 (s)",
      "decay_type_6": "B+",
      "iso_Z_6": "50",
      "iso_N_6": "54",
      "iso_A_6": "104",

      "iso_7": "Sn-105",
      "iso_mass_7": "104.921268",
      "iso_half_7": "32.7 (s)",
      "decay_type_7": "B+",
      "iso_Z_7": "50",
      "iso_N_7": "55",
      "iso_A_7": "105",

      "iso_8": "Sn-106",
      "iso_mass_8": "105.916957",
      "iso_half_8": "1.92 (min)",
      "decay_type_8": "B+",
      "iso_Z_8": "50",
      "iso_N_8": "56",
      "iso_A_8": "106",

      "iso_9": "Sn-107",
      "iso_mass_9": "106.915714",
      "iso_half_9": "2.90 (min)",
      "decay_type_9": "B+",
      "iso_Z_9": "50",
      "iso_N_9": "57",
      "iso_A_9": "107",

      "iso_10": "Sn-108",
      "iso_mass_10": "107.911894",
      "iso_half_10": "10.30 (min)",
      "decay_type_10": "B+",
      "iso_Z_10": "50",
      "iso_N_10": "58",
      "iso_A_10": "108",

      "iso_11": "Sn-109",
      "iso_mass_11": "108.911293",
      "iso_half_11": "18.1 (min)",
      "decay_type_11": "B+",
      "iso_Z_11": "50",
      "iso_N_11": "59",
      "iso_A_11": "109",

      "iso_12": "Sn-110",
      "iso_mass_12": "109.907845",
      "iso_half_12": "4.154 (h)",
      "decay_type_12": "EC",
      "iso_Z_12": "50",
      "iso_N_12": "60",
      "iso_A_12": "110",

      "iso_13": "Sn-111",
      "iso_mass_13": "110.907741",
      "iso_half_13": "35.3 (min)",
      "decay_type_13": "B+",
      "iso_Z_13": "50",
      "iso_N_13": "61",
      "iso_A_13": "111",

      "iso_14": "Sn-112",
      "iso_mass_14": "111.9048249",
      "iso_half_14": "Observationally Stable",
      "decay_type_14": "observationally stable",
      "iso_Z_14": "50",
      "iso_N_14": "62",
      "iso_A_14": "112",

      "iso_15": "Sn-113",
    "iso_mass_15": "112.905171",
    "iso_half_15": "115.09 (days)",
      "decay_type_15": "B+",
    "iso_Z_15": "50",
    "iso_N_15": "63",
    "iso_A_15": "113",

    "iso_16": "Sn-114",
    "iso_mass_16": "113.902779",
    "iso_half_16": "Stable",
      "decay_type_16": "stable",
      "iso_Z_16": "50",
    "iso_N_16": "64",
    "iso_A_16": "114",

    "iso_3": "Sn-115",
    "iso_mass_3": "114.903342",
    "iso_half_3": "Stable",
    "iso_Z_3": "50",
    "iso_N_3": "65",
    "iso_A_3": "115",

    "iso_4": "Sn-116",
    "iso_mass_4": "115.901741",
    "iso_half_4": "Stable",
    "iso_Z_4": "50",
    "iso_N_4": "66",
    "iso_A_4": "116",

    "iso_5": "Sn-117",
    "iso_mass_5": "116.902952",
    "iso_half_5": "Stable",
    "iso_Z_5": "50",
    "iso_N_5": "67",
    "iso_A_5": "117",

    "iso_6": "Sn-118",
    "iso_mass_6": "117.901603",
    "iso_half_6": "Stable",
    "iso_Z_6": "50",
    "iso_N_6": "68",
    "iso_A_6": "118",

    "iso_7": "Sn-119",
    "iso_mass_7": "118.903308",
    "iso_half_7": "Stable",
    "iso_Z_7": "50",
    "iso_N_7": "69",
    "iso_A_7": "119",

    "iso_8": "Sn-120",
    "iso_mass_8": "119.9021947",
    "iso_half_8": "Stable",
    "iso_Z_8": "50",
    "iso_N_8": "70",
    "iso_A_8": "120",

    "iso_9": "Sn-121",
    "iso_mass_9": "120.9042355",
    "iso_half_9": "27.03 (hours)",
    "iso_Z_9": "50",
    "iso_N_9": "71",
    "iso_A_9": "121",

    "iso_10": "Sn-122",
    "iso_mass_10": "121.9034390",
    "iso_half_10": "Observationally Stable",
    "iso_Z_10": "50",
    "iso_N_10": "72",
    "iso_A_10": "122",

    "iso_11": "Sn-123",
    "iso_mass_11": "122.9057208",
    "iso_half_11": "129.2 (days)",
    "iso_Z_11": "50",
    "iso_N_11": "73",
    "iso_A_11": "123"
  }
]