[
  {
    "wikilink": "https://en.wikipedia.org/wiki/Zinc",
    "link": "https://upload.wikimedia.org/wikipedia/commons/thumb/f/f9/Zinc_fragment_sublimed_and_1cm3_cube.jpg/1920px-Zinc_fragment_sublimed_and_1cm3_cube.jpg",
    "description": "Zinc is a chemical element with the symbol Zn and atomic number 30. Zinc is a slightly brittle metal at room temperature and has a blue-silvery appearance when oxidation is removed. It is the first element in group 12 of the periodic table. In some respects, zinc is chemically similar to magnesium: both elements exhibit only one normal oxidation state (+2), and the Zn2+ and Mg2+ ions are of similar size. Zinc is the 24th most abundant element in Earth's crust and has five stable isotopes. The most common zinc ore is sphalerite (zinc blende), a zinc sulfide mineral. The largest workable lodes are in Australia, Asia, and the United States. Zinc is refined by froth flotation of the ore, roasting, and final extraction using electricity (electrowinning).",

    "element": "Zinc",
    "short": "Zn",
    "element_year": "1000 BCE",
    "element_discovered_name": "---",
    "element_group": "Transition Metals",
    "element_appearance": "Silver- Gray",
    "element_electrons": "30",
    "element_protons": "30",
    "element_neutron_common": "34",

    "electrical_type": "Conductor",
    "resistivity": "5.9",
    "resistivity_mult": "0.00000001",
    "magnetic_type": "Diamagnetic",
    "superconducting_point": "0.85",

    "element_atomic_number": "30",
    "element_atomicmass": "65.38 (u)",
    "element_density": "7.14 (g/cm^3)",
    "element_electronegativty": "1.65",
    "element_block": "d - block",
    "element_shells_electrons": "K2 L8 18 N2 O0 P0 Q0 R0",
    "element_model": "https://upload.wikimedia.org/wikipedia/commons/thumb/c/c5/Electron_shell_030_Zinc_-_no_label.svg/1024px-Electron_shell_030_Zinc_-_no_label.svg.png",

    "element_boiling_kelvin": "1180 (K)",
    "element_boiling_celsius": "907 (°C)",
    "element_boiling_fahrenheit": "1665 (°F)",
    "element_melting_kelvin": "692.68 (K)",
    "element_melting_celsius": "419.53 (°C)",
    "element_melting_fahrenheit": "787.15 (°F)",

    "element_electron_config": "3d^10 4s^2",
    "element_ion_charge": "Zn^2+,",
    "element_ionization_energy": "9.3942 (eV)",
    "element_atomic_radius_e": "135 (pm)",
    "element_atomic_radius": "142 (pm)",
    "element_covalent_radius": "131 (pm)",
    "element_van_der_waals": "139",

    "element_phase": "Solid",
    "element_fusion_heat": "7.068 (kJ/mol)",
    "element_specific_heat_capacity": "0.388 J/(g·K)",
    "element_vaporization_heat": "119 (kJ/mol)",

    "oxidation_state_neg": "2",
    "oxidation_state_pos": "1 2",

    "iso_1": "Zn-63",
    "iso_mass_1": "62.9332116",
    "iso_half_1": "38.47 (min)",
    "iso_Z_1": "30",
    "iso_N_1": "33",
    "iso_A_1": "63",

    "iso_2": "Zn-64",
    "iso_mass_2": "63.9291422",
    "iso_half_2": "Observationally Stable",
    "iso_Z_2": "30",
    "iso_N_2": "34",
    "iso_A_2": "64",

    "iso_3": "Zn-65",
    "iso_mass_3": "64.9292410",
    "iso_half_3": "243.66 (days)",
    "iso_Z_3": "30",
    "iso_N_3": "35",
    "iso_A_3": "65",

    "iso_4": "Zn-66",
    "iso_mass_4": "65.9260334",
    "iso_half_4": "Stable",
    "iso_Z_4": "30",
    "iso_N_4": "36",
    "iso_A_4": "66",

    "iso_5": "Zn-67",
    "iso_mass_5": "66.9271273",
    "iso_half_5": "Stable",
    "iso_Z_5": "30",
    "iso_N_5": "37",
    "iso_A_5": "67",

    "iso_6": "Zn-68",
    "iso_mass_6": "67.9248442",
    "iso_half_6": "Stable",
    "iso_Z_6": "30",
    "iso_N_6": "38",
    "iso_A_6": "68",

    "iso_7": "Zn-69",
    "iso_mass_7": "68.9265503",
    "iso_half_7": "56.4 (min)",
    "iso_Z_7": "30",
    "iso_N_7": "39",
    "iso_A_7": "69",

    "iso_8": "Zn-70",
    "iso_mass_8": "69.9253193",
    "iso_half_8": "Observationally Stable",
    "iso_Z_8": "30",
    "iso_N_8": "40",
    "iso_A_8": "70",

    "iso_9": "Zn-71",
    "iso_mass_9": "70.927722",
    "iso_half_9": "2.45 (min)",
    "iso_Z_9": "30",
    "iso_N_9": "41",
    "iso_A_9": "71"
  }
]